<?xml version="1.0" encoding="ISO-8859-1"?>
<modeling>
 <generator>
  <i name="program" type="string">vasp </i>
  <i name="version" type="string">6.3.2  </i>
  <i name="subversion" type="string">27Jun22 (build Oct 14 2022 12:13:54) complex                          parallel </i>
  <i name="platform" type="string">LinuxIFC </i>
  <i name="date" type="string">2025 08 28 </i>
  <i name="time" type="string">22:11:41 </i>
 </generator>
 <incar>
  <i type="string" name="PREC">Accurate</i>
  <i type="int" name="IALGO">    38</i>
  <i type="logical" name="ADDGRID"> T  </i>
  <i type="int" name="NELMIN">     5</i>
  <i type="int" name="IBRION">    -1</i>
  <i name="EDIFF">      0.00000001</i>
  <i name="ENCUT">    341.21360000</i>
  <i type="logical" name="LREAL"> F  </i>
  <i type="int" name="ISMEAR">     0</i>
  <i name="SIGMA">      0.02000000</i>
  <i type="logical" name="LWAVE"> F  </i>
  <i type="logical" name="LCHARG"> F  </i>
  <i type="string" name="GGA">PS</i>
 </incar>
 <primitive_cell>
  <structure name="primitive_cell" >
   <crystal>
    <varray name="basis" >
     <v>      11.20400236       0.00000000       0.00000000 </v>
     <v>       0.00000000      11.20400236       0.00000000 </v>
     <v>       0.00000000       0.00000000      11.20400236 </v>
    </varray>
    <i name="volume">   1406.43470641 </i>
    <varray name="rec_basis" >
     <v>       0.08925382       0.00000000       0.00000000 </v>
     <v>       0.00000000       0.08925382       0.00000000 </v>
     <v>       0.00000000       0.00000000       0.08925382 </v>
    </varray>
   </crystal>
   <varray name="positions" >
    <v>       0.00000000       0.00000000       0.00000000 </v>
    <v>       0.25000000       0.25000000       0.00000000 </v>
    <v>       0.25000000       0.00000000       0.25000000 </v>
    <v>       0.00000000       0.25000000       0.25000000 </v>
    <v>       0.00000000       0.00000000       0.50000000 </v>
    <v>       0.25000000       0.25000000       0.50000000 </v>
    <v>       0.25000000       0.00000000       0.75000000 </v>
    <v>       0.00000000       0.25000000       0.75000000 </v>
    <v>       0.00000000       0.50000000       0.00000000 </v>
    <v>       0.25000000       0.75000000       0.00000000 </v>
    <v>       0.25000000       0.50000000       0.25000000 </v>
    <v>       0.00000000       0.75000000       0.25000000 </v>
    <v>       0.00000000       0.50000000       0.50000000 </v>
    <v>       0.25000000       0.75000000       0.50000000 </v>
    <v>       0.25000000       0.50000000       0.75000000 </v>
    <v>       0.00000000       0.75000000       0.75000000 </v>
    <v>       0.50000000       0.00000000       0.00000000 </v>
    <v>       0.75000000       0.25000000       0.00000000 </v>
    <v>       0.75000000       0.00000000       0.25000000 </v>
    <v>       0.50000000       0.25000000       0.25000000 </v>
    <v>       0.50000000       0.00000000       0.50000000 </v>
    <v>       0.75000000       0.25000000       0.50000000 </v>
    <v>       0.75000000       0.00000000       0.75000000 </v>
    <v>       0.50000000       0.25000000       0.75000000 </v>
    <v>       0.50000000       0.50000000       0.00000000 </v>
    <v>       0.75000000       0.75000000       0.00000000 </v>
    <v>       0.75000000       0.50000000       0.25000000 </v>
    <v>       0.50000000       0.75000000       0.25000000 </v>
    <v>       0.50000000       0.50000000       0.50000000 </v>
    <v>       0.75000000       0.75000000       0.50000000 </v>
    <v>       0.75000000       0.50000000       0.75000000 </v>
    <v>       0.50000000       0.75000000       0.75000000 </v>
    <v>       0.25267761       0.25000000       0.25000000 </v>
    <v>       0.00000000       0.00000000       0.25267761 </v>
    <v>       0.00000000       0.25000000       0.00000000 </v>
    <v>       0.25000000       0.00000000       0.00000000 </v>
    <v>       0.25000000       0.25000000       0.75000000 </v>
    <v>       0.00000000       0.00000000       0.75000000 </v>
    <v>       0.00000000       0.25000000       0.50000000 </v>
    <v>       0.25000000       0.00000000       0.50000000 </v>
    <v>       0.25000000       0.75000000       0.25000000 </v>
    <v>       0.00000000       0.50000000       0.25000000 </v>
    <v>       0.00000000       0.75000000       0.00000000 </v>
    <v>       0.25000000       0.50000000       0.00000000 </v>
    <v>       0.25000000       0.75000000       0.75000000 </v>
    <v>       0.00000000       0.50000000       0.75000000 </v>
    <v>       0.00000000       0.75000000       0.50000000 </v>
    <v>       0.25000000       0.50000000       0.50000000 </v>
    <v>       0.75000000       0.25000000       0.25000000 </v>
    <v>       0.50000000       0.00000000       0.25000000 </v>
    <v>       0.50000000       0.25000000       0.00000000 </v>
    <v>       0.75000000       0.00000000       0.00000000 </v>
    <v>       0.75000000       0.25000000       0.75000000 </v>
    <v>       0.50000000       0.00000000       0.75000000 </v>
    <v>       0.50000000       0.25000000       0.50000000 </v>
    <v>       0.75000000       0.00000000       0.50000000 </v>
    <v>       0.75000000       0.75000000       0.25000000 </v>
    <v>       0.50000000       0.50000000       0.25000000 </v>
    <v>       0.50000000       0.75000000       0.00000000 </v>
    <v>       0.75000000       0.50000000       0.00000000 </v>
    <v>       0.75000000       0.75000000       0.75000000 </v>
    <v>       0.50000000       0.50000000       0.75000000 </v>
    <v>       0.50000000       0.75000000       0.50000000 </v>
    <v>       0.75000000       0.50000000       0.50000000 </v>
   </varray>
  </structure>
  <varray name="primitive_index" >
   <v type="int" >        1 </v>
   <v type="int" >        2 </v>
   <v type="int" >        3 </v>
   <v type="int" >        4 </v>
   <v type="int" >        5 </v>
   <v type="int" >        6 </v>
   <v type="int" >        7 </v>
   <v type="int" >        8 </v>
   <v type="int" >        9 </v>
   <v type="int" >       10 </v>
   <v type="int" >       11 </v>
   <v type="int" >       12 </v>
   <v type="int" >       13 </v>
   <v type="int" >       14 </v>
   <v type="int" >       15 </v>
   <v type="int" >       16 </v>
   <v type="int" >       17 </v>
   <v type="int" >       18 </v>
   <v type="int" >       19 </v>
   <v type="int" >       20 </v>
   <v type="int" >       21 </v>
   <v type="int" >       22 </v>
   <v type="int" >       23 </v>
   <v type="int" >       24 </v>
   <v type="int" >       25 </v>
   <v type="int" >       26 </v>
   <v type="int" >       27 </v>
   <v type="int" >       28 </v>
   <v type="int" >       29 </v>
   <v type="int" >       30 </v>
   <v type="int" >       31 </v>
   <v type="int" >       32 </v>
   <v type="int" >       33 </v>
   <v type="int" >       34 </v>
   <v type="int" >       35 </v>
   <v type="int" >       36 </v>
   <v type="int" >       37 </v>
   <v type="int" >       38 </v>
   <v type="int" >       39 </v>
   <v type="int" >       40 </v>
   <v type="int" >       41 </v>
   <v type="int" >       42 </v>
   <v type="int" >       43 </v>
   <v type="int" >       44 </v>
   <v type="int" >       45 </v>
   <v type="int" >       46 </v>
   <v type="int" >       47 </v>
   <v type="int" >       48 </v>
   <v type="int" >       49 </v>
   <v type="int" >       50 </v>
   <v type="int" >       51 </v>
   <v type="int" >       52 </v>
   <v type="int" >       53 </v>
   <v type="int" >       54 </v>
   <v type="int" >       55 </v>
   <v type="int" >       56 </v>
   <v type="int" >       57 </v>
   <v type="int" >       58 </v>
   <v type="int" >       59 </v>
   <v type="int" >       60 </v>
   <v type="int" >       61 </v>
   <v type="int" >       62 </v>
   <v type="int" >       63 </v>
   <v type="int" >       64 </v>
  </varray>
 </primitive_cell>
 <kpoints>
  <generation param="Gamma">
   <v type="int" name="divisions">       2        2        2 </v>
   <v name="usershift">      0.00000000       0.00000000       0.00000000 </v>
   <v name="genvec1">      0.50000000       0.00000000       0.00000000 </v>
   <v name="genvec2">      0.00000000       0.50000000       0.00000000 </v>
   <v name="genvec3">      0.00000000       0.00000000       0.50000000 </v>
   <v name="shift">      0.00000000       0.00000000       0.00000000 </v>
  </generation>
  <varray name="kpointlist" >
   <v>       0.00000000       0.00000000       0.00000000 </v>
   <v>       0.50000000       0.00000000       0.00000000 </v>
   <v>       0.00000000       0.50000000       0.00000000 </v>
   <v>       0.00000000       0.00000000       0.50000000 </v>
   <v>       0.50000000       0.50000000       0.00000000 </v>
   <v>       0.00000000       0.50000000       0.50000000 </v>
   <v>       0.50000000       0.00000000       0.50000000 </v>
   <v>       0.50000000       0.50000000       0.50000000 </v>
  </varray>
  <varray name="weights" >
   <v>       0.12500000 </v>
   <v>       0.12500000 </v>
   <v>       0.12500000 </v>
   <v>       0.12500000 </v>
   <v>       0.12500000 </v>
   <v>       0.12500000 </v>
   <v>       0.12500000 </v>
   <v>       0.12500000 </v>
  </varray>
 </kpoints>
 <parameters>
  <separator name="general" >
   <i type="string" name="SYSTEM">unknown system</i>
   <i type="logical" name="LCOMPAT"> F  </i>
  </separator>
  <separator name="electronic" >
   <i type="string" name="PREC">accura</i>
   <i name="ENMAX">    341.21360000</i>
   <i name="ENAUG">    368.05600000</i>
   <i name="EDIFF">      0.00000001</i>
   <i type="int" name="IALGO">    38</i>
   <i type="int" name="IWAVPR">    10</i>
   <i type="int" name="NBANDS">   288</i>
   <i type="int" name="NBANDSLOW">    -1</i>
   <i type="int" name="NBANDSHIGH">    -1</i>
   <i name="NELECT">    448.00000000</i>
   <i type="int" name="TURBO">     0</i>
   <i type="int" name="IRESTART">     0</i>
   <i type="int" name="NREBOOT">     0</i>
   <i type="int" name="NMIN">     0</i>
   <i name="EREF">      0.00000000</i>
   <separator name="electronic smearing" >
    <i type="int" name="ISMEAR">     0</i>
    <i name="SIGMA">      0.02000000</i>
    <i name="KSPACING">      0.50000000</i>
    <i type="logical" name="KGAMMA"> T  </i>
    <i type="logical" name="KBLOWUP"> T  </i>
   </separator>
   <separator name="electronic projectors" >
    <i type="logical" name="LREAL"> F  </i>
    <v name="ROPT">      0.00000000      0.00000000</v>
    <i type="int" name="LMAXPAW">  -100</i>
    <i type="int" name="LMAXMIX">     2</i>
    <i type="logical" name="NLSPLINE"> F  </i>
   </separator>
   <separator name="electronic startup" >
    <i type="int" name="ISTART">     0</i>
    <i type="int" name="ICHARG">     2</i>
    <i type="int" name="INIWAV">     1</i>
   </separator>
   <separator name="electronic spin" >
    <i type="int" name="ISPIN">     1</i>
    <i type="logical" name="LNONCOLLINEAR"> F  </i>
    <v name="MAGMOM">      1.00000000      1.00000000      1.00000000      1.00000000      1.00000000      1.00000000      1.00000000      1.00000000      1.00000000      1.00000000      1.00000000      1.00000000      1.00000000      1.00000000      1.00000000      1.00000000      1.00000000      1.00000000      1.00000000      1.00000000
      1.00000000      1.00000000      1.00000000      1.00000000      1.00000000      1.00000000      1.00000000      1.00000000      1.00000000      1.00000000      1.00000000      1.00000000      1.00000000      1.00000000      1.00000000      1.00000000      1.00000000      1.00000000      1.00000000      1.00000000
      1.00000000      1.00000000      1.00000000      1.00000000      1.00000000      1.00000000      1.00000000      1.00000000      1.00000000      1.00000000      1.00000000      1.00000000      1.00000000      1.00000000      1.00000000      1.00000000      1.00000000      1.00000000      1.00000000      1.00000000
      1.00000000      1.00000000      1.00000000      1.00000000</v>
    <i name="NUPDOWN">     -1.00000000</i>
    <i type="logical" name="LSORBIT"> F  </i>
    <v name="SAXIS">      0.00000000      0.00000000      1.00000000</v>
    <i type="logical" name="LSPIRAL"> F  </i>
    <v name="QSPIRAL">      0.00000000      0.00000000      0.00000000</v>
    <i type="logical" name="LZEROZ"> F  </i>
   </separator>
   <separator name="electronic exchange-correlation" >
    <i type="logical" name="LASPH"> F  </i>
    <i type="logical" name="LMETAGGA"> F  </i>
   </separator>
   <separator name="electronic convergence" >
    <i type="int" name="NELM">    60</i>
    <i type="int" name="NELMDL">    -5</i>
    <i type="int" name="NELMIN">     5</i>
    <i name="ENINI">    341.21360000</i>
    <separator name="electronic convergence detail" >
     <i type="logical" name="LDIAG"> T  </i>
     <i type="logical" name="LSUBROT"> F  </i>
     <i name="WEIMIN">      0.00000000</i>
     <i name="EBREAK">      0.00000000</i>
     <i name="DEPER">      0.30000000</i>
     <i type="int" name="NRMM">     4</i>
     <i name="TIME">      0.40000000</i>
    </separator>
   </separator>
   <separator name="electronic mixer" >
    <i name="AMIX">      0.40000000</i>
    <i name="BMIX">      1.00000000</i>
    <i name="AMIN">      0.10000000</i>
    <i name="AMIX_MAG">      1.60000000</i>
    <i name="BMIX_MAG">      1.00000000</i>
    <separator name="electronic mixer details" >
     <i type="int" name="IMIX">     4</i>
     <i type="logical" name="MIXFIRST"> F  </i>
     <i type="int" name="MAXMIX">   -45</i>
     <i name="WC">    100.00000000</i>
     <i type="int" name="INIMIX">     1</i>
     <i type="int" name="MIXPRE">     1</i>
     <i type="int" name="MREMOVE">     5</i>
    </separator>
   </separator>
   <separator name="electronic dipolcorrection" >
    <i type="logical" name="LDIPOL"> F  </i>
    <i type="logical" name="LMONO"> F  </i>
    <i type="int" name="IDIPOL">     0</i>
    <i name="EPSILON">      1.00000000</i>
    <v name="DIPOL">   -100.00000000   -100.00000000   -100.00000000</v>
    <i name="EFIELD">      0.00000000</i>
   </separator>
  </separator>
  <separator name="grids" >
   <i type="int" name="NGX">    70</i>
   <i type="int" name="NGY">    70</i>
   <i type="int" name="NGZ">    70</i>
   <i type="int" name="NGXF">   140</i>
   <i type="int" name="NGYF">   140</i>
   <i type="int" name="NGZF">   140</i>
   <i type="logical" name="ADDGRID"> T  </i>
  </separator>
  <separator name="ionic" >
   <i type="int" name="NSW">     0</i>
   <i type="int" name="IBRION">    -1</i>
   <i type="int" name="MDALGO">     0</i>
   <i type="int" name="ISIF">     2</i>
   <i name="PSTRESS">      0.00000000</i>
   <i name="EDIFFG">      0.00000010</i>
   <i type="int" name="NFREE">     0</i>
   <i name="POTIM">      0.50000000</i>
   <i name="SMASS">     -3.00000000</i>
   <i name="SCALEE">      1.00000000</i>
  </separator>
  <separator name="ionic md" >
   <i name="TEBEG">      0.00010000</i>
   <i name="TEEND">      0.00010000</i>
   <i type="int" name="NBLOCK">     1</i>
   <i type="int" name="KBLOCK">     1</i>
   <i type="int" name="NPACO">   256</i>
   <i name="APACO">     10.00000000</i>
  </separator>
  <separator name="symmetry" >
   <i type="int" name="ISYM">     2</i>
   <i name="SYMPREC">      0.00001000</i>
  </separator>
  <separator name="dos" >
   <i type="int" name="LORBIT">     0</i>
   <v name="RWIGS">     -1.00000000     -1.00000000</v>
   <i type="int" name="NEDOS">   301</i>
   <i name="EMIN">     10.00000000</i>
   <i name="EMAX">    -10.00000000</i>
   <i name="EFERMI">      0.00000000</i>
  </separator>
  <separator name="writing" >
   <i type="int" name="NWRITE">     2</i>
   <i type="logical" name="LWAVE"> F  </i>
   <i type="logical" name="LDOWNSAMPLE"> F  </i>
   <i type="logical" name="LCHARG"> F  </i>
   <i type="logical" name="LPARD"> F  </i>
   <i type="logical" name="LVTOT"> F  </i>
   <i type="logical" name="LVHAR"> F  </i>
   <i type="logical" name="LELF"> F  </i>
   <i type="logical" name="LOPTICS"> F  </i>
   <v name="STM">      0.00000000      0.00000000      0.00000000      0.00000000      0.00000000      0.00000000      0.00000000</v>
  </separator>
  <separator name="performance" >
   <i type="int" name="NPAR">    32</i>
   <i type="int" name="NSIM">     4</i>
   <i type="int" name="NBLK">    -1</i>
   <i type="logical" name="LPLANE"> T  </i>
   <i type="logical" name="LSCALAPACK"> T  </i>
   <i type="logical" name="LSCAAWARE"> F  </i>
   <i type="logical" name="LSCALU"> F  </i>
   <i type="logical" name="LASYNC"> F  </i>
   <i type="logical" name="LORBITALREAL"> F  </i>
  </separator>
  <separator name="miscellaneous" >
   <i type="int" name="IDIOT">     3</i>
   <i type="int" name="PHON_NSTRUCT">    -1</i>
   <i type="logical" name="LMUSIC"> F  </i>
   <v name="POMASS">     22.99000000     35.45300000</v>
   <v name="DARWINR">      0.00000000      0.00000000</v>
   <v name="DARWINV">      1.00000000      1.00000000</v>
   <i type="logical" name="LCORR"> T  </i>
  </separator>
  <i type="logical" name="GGA_COMPAT"> T  </i>
  <i type="logical" name="LBERRY"> F  </i>
  <i type="int" name="ICORELEVEL">     0</i>
  <i type="logical" name="LDAU"> F  </i>
  <i type="int" name="I_CONSTRAINED_M">     0</i>
  <separator name="electronic exchange-correlation" >
   <i type="string" name="GGA">PS</i>
   <i type="int" name="VOSKOWN">     0</i>
   <i type="logical" name="LHFCALC"> F  </i>
   <i type="string" name="PRECFOCK"></i>
   <i type="logical" name="LSYMGRAD"> F  </i>
   <i type="logical" name="LHFONE"> F  </i>
   <i type="logical" name="LRHFCALC"> F  </i>
   <i type="logical" name="LTHOMAS"> F  </i>
   <i type="logical" name="LMODELHF"> F  </i>
   <i type="logical" name="LFOCKACE"> F  </i>
   <i name="ENCUT4O">     -1.00000000</i>
   <i type="int" name="EXXOEP">     0</i>
   <i type="int" name="FOURORBIT">     0</i>
   <i name="AEXX">      0.00000000</i>
   <i name="HFALPHA">      0.00000000</i>
   <i name="MCALPHA">      0.00000000</i>
   <i name="ALDAX">      1.00000000</i>
   <i name="AGGAX">      1.00000000</i>
   <i name="ALDAC">      1.00000000</i>
   <i name="AGGAC">      1.00000000</i>
   <i type="int" name="NKREDX">     1</i>
   <i type="int" name="NKREDY">     1</i>
   <i type="int" name="NKREDZ">     1</i>
   <i type="logical" name="SHIFTRED"> F  </i>
   <i type="logical" name="ODDONLY"> F  </i>
   <i type="logical" name="EVENONLY"> F  </i>
   <i type="int" name="LMAXFOCK">     0</i>
   <i type="int" name="NMAXFOCKAE">     0</i>
   <i type="logical" name="LFOCKAEDFT"> F  </i>
   <i name="HFSCREEN">      0.00000000</i>
   <i name="HFSCREENC">      0.00000000</i>
   <i type="int" name="NBANDSGWLOW">     0</i>
  </separator>
  <separator name="vdW DFT" >
   <i type="logical" name="LUSE_VDW"> F  </i>
   <i name="Zab_VDW">     -0.84910000</i>
   <i name="PARAM1">      0.12340000</i>
   <i name="PARAM2">      1.00000000</i>
   <i name="PARAM3">      0.00000000</i>
  </separator>
  <separator name="model GW" >
   <i type="int" name="MODEL_GW">     0</i>
   <i name="MODEL_EPS0">     13.18532537</i>
   <i name="MODEL_ALPHA">      1.00000000</i>
  </separator>
  <separator name="linear response parameters" >
   <i type="logical" name="LEPSILON"> F  </i>
   <i type="logical" name="LRPA"> F  </i>
   <i type="logical" name="LNABLA"> F  </i>
   <i type="logical" name="LVEL"> F  </i>
   <i name="CSHIFT">      0.10000000</i>
   <i name="OMEGAMAX">     -1.00000000</i>
   <i name="DEG_THRESHOLD">      0.00200000</i>
   <i name="RTIME">     -0.10000000</i>
   <i name="WPLASMAI">      0.00000000</i>
   <v name="DFIELD">      0.00000000      0.00000000      0.00000000</v>
   <v name="WPLASMA">      0.00000000      0.00000000      0.00000000      0.00000000      0.00000000      0.00000000      0.00000000      0.00000000      0.00000000</v>
  </separator>
  <separator name="orbital magnetization" >
   <i type="logical" name="NUCIND"> F  </i>
   <v name="MAGPOS">      0.00000000      0.00000000      0.00000000</v>
   <i type="logical" name="LNICSALL"> T  </i>
   <i type="logical" name="ORBITALMAG"> F  </i>
   <i type="logical" name="LMAGBLOCH"> F  </i>
   <i type="logical" name="LCHIMAG"> F  </i>
   <i type="logical" name="LGAUGE"> T  </i>
   <i type="int" name="MAGATOM">     0</i>
   <v name="MAGDIPOL">      0.00000000      0.00000000      0.00000000</v>
   <v name="AVECCONST">      0.00000000      0.00000000      0.00000000</v>
  </separator>
  <separator name="response functions" >
   <i type="logical" name="LFINITE_TEMPERATURE"> F  </i>
   <i type="logical" name="LADDER"> F  </i>
   <i type="logical" name="LRPAFORCE"> F  </i>
   <i type="logical" name="LFXC"> F  </i>
   <i type="logical" name="LHARTREE"> T  </i>
   <i type="int" name="IBSE">     0</i>
   <v type="int" name="KPOINT">    -1     0     0     0</v>
   <i type="logical" name="LTCTC"> F  </i>
   <i type="logical" name="LTCTE"> F  </i>
   <i type="logical" name="LTETE"> F  </i>
   <i type="logical" name="LTRIPLET"> F  </i>
   <i type="logical" name="LFXCEPS"> F  </i>
   <i type="logical" name="LFXHEG"> F  </i>
   <i type="int" name="NATURALO">     2</i>
   <i type="logical" name="LHOLEGF"> F  </i>
   <i type="logical" name="L2ORDER"> F  </i>
   <i type="logical" name="LDMP1"> F  </i>
   <i type="logical" name="LMP2LT"> F  </i>
   <i type="logical" name="LSMP2LT"> F  </i>
   <i type="logical" name="LGWLF"> F  </i>
   <i name="ENCUTGW">     -2.00000000</i>
   <i name="ENCUTGWSOFT">     -2.00000000</i>
   <i name="ENCUTLF">     -1.00000000</i>
   <i type="logical" name="LESF_SPLINES"> F  </i>
   <i type="int" name="LMAXMP2">    -1</i>
   <i name="SCISSOR">      0.00000000</i>
   <i type="int" name="NOMEGA">     0</i>
   <i type="int" name="NOMEGAR">     0</i>
   <i type="int" name="NBANDSGW">    -1</i>
   <i type="int" name="NBANDSO">    -1</i>
   <i type="int" name="NBANDSV">    -1</i>
   <i type="int" name="NELMGW">     1</i>
   <i type="int" name="NELMHF">     1</i>
   <i type="int" name="DIM">     3</i>
   <i type="int" name="IESPILON">     4</i>
   <i type="int" name="ANTIRES">     0</i>
   <i name="OMEGAMAX">    -30.00000000</i>
   <i name="OMEGAMIN">    -30.00000000</i>
   <i name="OMEGATL">   -200.00000000</i>
   <i type="int" name="OMEGAGRID">     0</i>
   <i name="CSHIFT">     -0.10000000</i>
   <i type="logical" name="LSELFENERGY"> F  </i>
   <i type="logical" name="LSPECTRAL"> F  </i>
   <i type="logical" name="LSPECTRALGW"> F  </i>
   <i type="logical" name="LSINGLES"> F  </i>
   <i type="logical" name="LFERMIGW"> F  </i>
   <i type="logical" name="ODDONLYGW"> F  </i>
   <i type="logical" name="EVENONLYGW"> F  </i>
   <i type="int" name="NKREDLFX">     1</i>
   <i type="int" name="NKREDLFY">     1</i>
   <i type="int" name="NKREDLFZ">     1</i>
   <i type="int" name="MAXMEM">  2800</i>
   <i type="int" name="TELESCOPE">     0</i>
   <i type="int" name="NTAUPAR">    -1</i>
   <i type="int" name="NOMEGAPAR">    -1</i>
   <i name="DAMP_NEWTON">      0.80000001</i>
   <i name="LAMBDA">      1.00000000</i>
  </separator>
  <separator name="External order field" >
   <i name="OFIELD_KAPPA">      0.00000000</i>
   <v name="OFIELD_K">      0.00000000      0.00000000      0.00000000</v>
   <i name="OFIELD_Q6_NEAR">      0.00000000</i>
   <i name="OFIELD_Q6_FAR">      0.00000000</i>
   <i name="OFIELD_A">      0.00000000</i>
  </separator>
  <separator name="optional k-points parameters" >
   <i type="int" name="KPOINTS_OPT_MODE">     1</i>
   <i type="logical" name="LKPOINTS_OPT"> F  </i>
  </separator>
 </parameters>
 <atominfo>
  <atoms>      64 </atoms>
  <types>       2 </types>
  <array name="atoms" >
   <dimension dim="1">ion</dimension>
   <field type="string">element</field>
   <field type="int">atomtype</field>
   <set>
    <rc><c>Na</c><c>   1</c></rc>
    <rc><c>Na</c><c>   1</c></rc>
    <rc><c>Na</c><c>   1</c></rc>
    <rc><c>Na</c><c>   1</c></rc>
    <rc><c>Na</c><c>   1</c></rc>
    <rc><c>Na</c><c>   1</c></rc>
    <rc><c>Na</c><c>   1</c></rc>
    <rc><c>Na</c><c>   1</c></rc>
    <rc><c>Na</c><c>   1</c></rc>
    <rc><c>Na</c><c>   1</c></rc>
    <rc><c>Na</c><c>   1</c></rc>
    <rc><c>Na</c><c>   1</c></rc>
    <rc><c>Na</c><c>   1</c></rc>
    <rc><c>Na</c><c>   1</c></rc>
    <rc><c>Na</c><c>   1</c></rc>
    <rc><c>Na</c><c>   1</c></rc>
    <rc><c>Na</c><c>   1</c></rc>
    <rc><c>Na</c><c>   1</c></rc>
    <rc><c>Na</c><c>   1</c></rc>
    <rc><c>Na</c><c>   1</c></rc>
    <rc><c>Na</c><c>   1</c></rc>
    <rc><c>Na</c><c>   1</c></rc>
    <rc><c>Na</c><c>   1</c></rc>
    <rc><c>Na</c><c>   1</c></rc>
    <rc><c>Na</c><c>   1</c></rc>
    <rc><c>Na</c><c>   1</c></rc>
    <rc><c>Na</c><c>   1</c></rc>
    <rc><c>Na</c><c>   1</c></rc>
    <rc><c>Na</c><c>   1</c></rc>
    <rc><c>Na</c><c>   1</c></rc>
    <rc><c>Na</c><c>   1</c></rc>
    <rc><c>Na</c><c>   1</c></rc>
    <rc><c>Cl</c><c>   2</c></rc>
    <rc><c>Cl</c><c>   2</c></rc>
    <rc><c>Cl</c><c>   2</c></rc>
    <rc><c>Cl</c><c>   2</c></rc>
    <rc><c>Cl</c><c>   2</c></rc>
    <rc><c>Cl</c><c>   2</c></rc>
    <rc><c>Cl</c><c>   2</c></rc>
    <rc><c>Cl</c><c>   2</c></rc>
    <rc><c>Cl</c><c>   2</c></rc>
    <rc><c>Cl</c><c>   2</c></rc>
    <rc><c>Cl</c><c>   2</c></rc>
    <rc><c>Cl</c><c>   2</c></rc>
    <rc><c>Cl</c><c>   2</c></rc>
    <rc><c>Cl</c><c>   2</c></rc>
    <rc><c>Cl</c><c>   2</c></rc>
    <rc><c>Cl</c><c>   2</c></rc>
    <rc><c>Cl</c><c>   2</c></rc>
    <rc><c>Cl</c><c>   2</c></rc>
    <rc><c>Cl</c><c>   2</c></rc>
    <rc><c>Cl</c><c>   2</c></rc>
    <rc><c>Cl</c><c>   2</c></rc>
    <rc><c>Cl</c><c>   2</c></rc>
    <rc><c>Cl</c><c>   2</c></rc>
    <rc><c>Cl</c><c>   2</c></rc>
    <rc><c>Cl</c><c>   2</c></rc>
    <rc><c>Cl</c><c>   2</c></rc>
    <rc><c>Cl</c><c>   2</c></rc>
    <rc><c>Cl</c><c>   2</c></rc>
    <rc><c>Cl</c><c>   2</c></rc>
    <rc><c>Cl</c><c>   2</c></rc>
    <rc><c>Cl</c><c>   2</c></rc>
    <rc><c>Cl</c><c>   2</c></rc>
   </set>
  </array>
  <array name="atomtypes" >
   <dimension dim="1">type</dimension>
   <field type="int">atomspertype</field>
   <field type="string">element</field>
   <field>mass</field>
   <field>valence</field>
   <field type="string">pseudopotential</field>
   <set>
    <rc><c>  32</c><c>Na</c><c>     22.99000000</c><c>      7.00000000</c><c>  PAW_PBE Na_pv 19Sep2006               </c></rc>
    <rc><c>  32</c><c>Cl</c><c>     35.45300000</c><c>      7.00000000</c><c>  PAW_PBE Cl 06Sep2000                  </c></rc>
   </set>
  </array>
 </atominfo>
 <structure name="initialpos" >
  <crystal>
   <varray name="basis" >
    <v>      11.20400236       0.00000000       0.00000000 </v>
    <v>       0.00000000      11.20400236       0.00000000 </v>
    <v>       0.00000000       0.00000000      11.20400236 </v>
   </varray>
   <i name="volume">   1406.43470641 </i>
   <varray name="rec_basis" >
    <v>       0.08925382       0.00000000       0.00000000 </v>
    <v>       0.00000000       0.08925382       0.00000000 </v>
    <v>       0.00000000       0.00000000       0.08925382 </v>
   </varray>
  </crystal>
  <varray name="positions" >
   <v>       0.00000000       0.00000000       0.00000000 </v>
   <v>       0.25000000       0.25000000       0.00000000 </v>
   <v>       0.25000000       0.00000000       0.25000000 </v>
   <v>       0.00000000       0.25000000       0.25000000 </v>
   <v>       0.00000000       0.00000000       0.50000000 </v>
   <v>       0.25000000       0.25000000       0.50000000 </v>
   <v>       0.25000000       0.00000000       0.75000000 </v>
   <v>       0.00000000       0.25000000       0.75000000 </v>
   <v>       0.00000000       0.50000000       0.00000000 </v>
   <v>       0.25000000       0.75000000       0.00000000 </v>
   <v>       0.25000000       0.50000000       0.25000000 </v>
   <v>       0.00000000       0.75000000       0.25000000 </v>
   <v>       0.00000000       0.50000000       0.50000000 </v>
   <v>       0.25000000       0.75000000       0.50000000 </v>
   <v>       0.25000000       0.50000000       0.75000000 </v>
   <v>       0.00000000       0.75000000       0.75000000 </v>
   <v>       0.50000000       0.00000000       0.00000000 </v>
   <v>       0.75000000       0.25000000       0.00000000 </v>
   <v>       0.75000000       0.00000000       0.25000000 </v>
   <v>       0.50000000       0.25000000       0.25000000 </v>
   <v>       0.50000000       0.00000000       0.50000000 </v>
   <v>       0.75000000       0.25000000       0.50000000 </v>
   <v>       0.75000000       0.00000000       0.75000000 </v>
   <v>       0.50000000       0.25000000       0.75000000 </v>
   <v>       0.50000000       0.50000000       0.00000000 </v>
   <v>       0.75000000       0.75000000       0.00000000 </v>
   <v>       0.75000000       0.50000000       0.25000000 </v>
   <v>       0.50000000       0.75000000       0.25000000 </v>
   <v>       0.50000000       0.50000000       0.50000000 </v>
   <v>       0.75000000       0.75000000       0.50000000 </v>
   <v>       0.75000000       0.50000000       0.75000000 </v>
   <v>       0.50000000       0.75000000       0.75000000 </v>
   <v>       0.25267761       0.25000000       0.25000000 </v>
   <v>       0.00000000       0.00000000       0.25267761 </v>
   <v>       0.00000000       0.25000000       0.00000000 </v>
   <v>       0.25000000       0.00000000       0.00000000 </v>
   <v>       0.25000000       0.25000000       0.75000000 </v>
   <v>       0.00000000       0.00000000       0.75000000 </v>
   <v>       0.00000000       0.25000000       0.50000000 </v>
   <v>       0.25000000       0.00000000       0.50000000 </v>
   <v>       0.25000000       0.75000000       0.25000000 </v>
   <v>       0.00000000       0.50000000       0.25000000 </v>
   <v>       0.00000000       0.75000000       0.00000000 </v>
   <v>       0.25000000       0.50000000       0.00000000 </v>
   <v>       0.25000000       0.75000000       0.75000000 </v>
   <v>       0.00000000       0.50000000       0.75000000 </v>
   <v>       0.00000000       0.75000000       0.50000000 </v>
   <v>       0.25000000       0.50000000       0.50000000 </v>
   <v>       0.75000000       0.25000000       0.25000000 </v>
   <v>       0.50000000       0.00000000       0.25000000 </v>
   <v>       0.50000000       0.25000000       0.00000000 </v>
   <v>       0.75000000       0.00000000       0.00000000 </v>
   <v>       0.75000000       0.25000000       0.75000000 </v>
   <v>       0.50000000       0.00000000       0.75000000 </v>
   <v>       0.50000000       0.25000000       0.50000000 </v>
   <v>       0.75000000       0.00000000       0.50000000 </v>
   <v>       0.75000000       0.75000000       0.25000000 </v>
   <v>       0.50000000       0.50000000       0.25000000 </v>
   <v>       0.50000000       0.75000000       0.00000000 </v>
   <v>       0.75000000       0.50000000       0.00000000 </v>
   <v>       0.75000000       0.75000000       0.75000000 </v>
   <v>       0.50000000       0.50000000       0.75000000 </v>
   <v>       0.50000000       0.75000000       0.50000000 </v>
   <v>       0.75000000       0.50000000       0.50000000 </v>
  </varray>
 </structure>
 <calculation>
  <scstep>
   <time name="dav">   10.30   10.35</time>
   <time name="total">   10.37   10.43</time>
   <energy>
    <i name="alphaZ">    751.52672365 </i>
    <i name="ewald"> -22871.34016192 </i>
    <i name="hartreedc">  -8992.24818160 </i>
    <i name="XCdc">   1456.53429136 </i>
    <i name="pawpsdc">  26466.43774078 </i>
    <i name="pawaedc"> -29286.08056155 </i>
    <i name="eentropy">     -0.00494436 </i>
    <i name="bandstr">   -658.26870170 </i>
    <i name="atom">  37532.17946992 </i>
    <i name="e_fr_energy">   4398.73567459 </i>
    <i name="e_wo_entrp">   4398.74061895 </i>
    <i name="e_0_energy">   4398.73814677 </i>
   </energy>
  </scstep>
  <scstep>
   <time name="dav">   10.81   10.87</time>
   <time name="total">   10.81   10.87</time>
   <energy>
    <i name="e_fr_energy">    367.03872552 </i>
    <i name="e_wo_entrp">    367.03872552 </i>
    <i name="e_0_energy">    367.03872552 </i>
   </energy>
  </scstep>
  <scstep>
   <time name="dav">   11.52   11.59</time>
   <time name="total">   11.53   11.59</time>
   <energy>
    <i name="e_fr_energy">   -204.87655378 </i>
    <i name="e_wo_entrp">   -204.87655378 </i>
    <i name="e_0_energy">   -204.87655378 </i>
   </energy>
  </scstep>
  <scstep>
   <time name="dav">   11.44   11.50</time>
   <time name="total">   11.44   11.50</time>
   <energy>
    <i name="e_fr_energy">   -228.12813533 </i>
    <i name="e_wo_entrp">   -228.12813533 </i>
    <i name="e_0_energy">   -228.12813533 </i>
   </energy>
  </scstep>
  <scstep>
   <time name="dav">   12.00   12.07</time>
   <time name="total">   12.34   12.41</time>
   <energy>
    <i name="e_fr_energy">   -229.00150213 </i>
    <i name="e_wo_entrp">   -229.00150213 </i>
    <i name="e_0_energy">   -229.00150213 </i>
   </energy>
  </scstep>
  <scstep>
   <time name="dav">   11.78   11.85</time>
   <time name="total">   12.18   12.26</time>
   <energy>
    <i name="e_fr_energy">   -224.13925405 </i>
    <i name="e_wo_entrp">   -224.13925405 </i>
    <i name="e_0_energy">   -224.13925405 </i>
   </energy>
  </scstep>
  <scstep>
   <time name="dav">   12.75   12.82</time>
   <time name="total">   13.15   13.22</time>
   <energy>
    <i name="e_fr_energy">   -223.77746283 </i>
    <i name="e_wo_entrp">   -223.77746283 </i>
    <i name="e_0_energy">   -223.77746283 </i>
   </energy>
  </scstep>
  <scstep>
   <time name="dav">   11.24   11.31</time>
   <time name="total">   11.64   11.71</time>
   <energy>
    <i name="e_fr_energy">   -223.90297022 </i>
    <i name="e_wo_entrp">   -223.90297022 </i>
    <i name="e_0_energy">   -223.90297022 </i>
   </energy>
  </scstep>
  <scstep>
   <time name="dav">   11.74   11.81</time>
   <time name="total">   12.13   12.21</time>
   <energy>
    <i name="e_fr_energy">   -223.89707664 </i>
    <i name="e_wo_entrp">   -223.89707664 </i>
    <i name="e_0_energy">   -223.89707664 </i>
   </energy>
  </scstep>
  <scstep>
   <time name="dav">   11.43   11.50</time>
   <time name="total">   11.82   11.90</time>
   <energy>
    <i name="e_fr_energy">   -223.90120260 </i>
    <i name="e_wo_entrp">   -223.90120260 </i>
    <i name="e_0_energy">   -223.90120260 </i>
   </energy>
  </scstep>
  <scstep>
   <time name="dav">   12.28   12.35</time>
   <time name="total">   12.67   12.75</time>
   <energy>
    <i name="e_fr_energy">   -223.90046042 </i>
    <i name="e_wo_entrp">   -223.90046042 </i>
    <i name="e_0_energy">   -223.90046042 </i>
   </energy>
  </scstep>
  <scstep>
   <time name="dav">   12.52   12.59</time>
   <time name="total">   12.91   12.99</time>
   <energy>
    <i name="e_fr_energy">   -223.90042486 </i>
    <i name="e_wo_entrp">   -223.90042486 </i>
    <i name="e_0_energy">   -223.90042486 </i>
   </energy>
  </scstep>
  <scstep>
   <time name="dav">   11.37   11.43</time>
   <time name="total">   11.77   11.83</time>
   <energy>
    <i name="e_fr_energy">   -223.90041717 </i>
    <i name="e_wo_entrp">   -223.90041717 </i>
    <i name="e_0_energy">   -223.90041717 </i>
   </energy>
  </scstep>
  <scstep>
   <time name="dav">   11.20   11.26</time>
   <time name="total">   11.60   11.66</time>
   <energy>
    <i name="e_fr_energy">   -223.90041947 </i>
    <i name="e_wo_entrp">   -223.90041947 </i>
    <i name="e_0_energy">   -223.90041947 </i>
   </energy>
  </scstep>
  <scstep>
   <time name="dav">   12.74   12.81</time>
   <time name="total">   13.14   13.21</time>
   <energy>
    <i name="e_fr_energy">   -223.90042025 </i>
    <i name="e_wo_entrp">   -223.90042025 </i>
    <i name="e_0_energy">   -223.90042025 </i>
   </energy>
  </scstep>
  <scstep>
   <time name="dav">   11.74   11.80</time>
   <time name="total">   12.14   12.21</time>
   <energy>
    <i name="e_fr_energy">   -223.90042073 </i>
    <i name="e_wo_entrp">   -223.90042073 </i>
    <i name="e_0_energy">   -223.90042073 </i>
   </energy>
  </scstep>
  <scstep>
   <time name="dav">    8.79    8.84</time>
   <time name="total">    9.19    9.25</time>
   <energy>
    <i name="e_fr_energy">   -223.90042085 </i>
    <i name="e_wo_entrp">   -223.90042085 </i>
    <i name="e_0_energy">   -223.90042085 </i>
   </energy>
  </scstep>
  <scstep>
   <time name="dav">   10.31   10.37</time>
   <time name="total">   10.71   10.77</time>
   <energy>
    <i name="e_fr_energy">   -223.90042104 </i>
    <i name="e_wo_entrp">   -223.90042104 </i>
    <i name="e_0_energy">   -223.90042104 </i>
   </energy>
  </scstep>
  <scstep>
   <time name="dav">    7.87    7.92</time>
   <time name="total">    8.27    8.32</time>
   <energy>
    <i name="e_fr_energy">   -223.90042101 </i>
    <i name="e_wo_entrp">   -223.90042101 </i>
    <i name="e_0_energy">   -223.90042101 </i>
   </energy>
  </scstep>
  <scstep>
   <time name="dav">    8.28    8.33</time>
   <time name="total">    8.68    8.73</time>
   <energy>
    <i name="e_fr_energy">   -223.90042097 </i>
    <i name="e_wo_entrp">   -223.90042097 </i>
    <i name="e_0_energy">   -223.90042097 </i>
   </energy>
  </scstep>
  <scstep>
   <time name="dav">    7.63    7.67</time>
   <time name="total">    8.03    8.07</time>
   <energy>
    <i name="e_fr_energy">   -223.90042090 </i>
    <i name="e_wo_entrp">   -223.90042090 </i>
    <i name="e_0_energy">   -223.90042090 </i>
   </energy>
  </scstep>
  <scstep>
   <time name="dav">    7.47    7.51</time>
   <time name="total">    7.54    7.59</time>
   <energy>
    <i name="alphaZ">    751.52672365 </i>
    <i name="ewald"> -22871.34016192 </i>
    <i name="hartreedc">  -9078.16931432 </i>
    <i name="XCdc">   1472.51353985 </i>
    <i name="pawpsdc">  29498.30608022 </i>
    <i name="pawaedc"> -32317.67062611 </i>
    <i name="eentropy">     -0.00000000 </i>
    <i name="bandstr">  -5211.24613220 </i>
    <i name="atom">  37532.17946992 </i>
    <i name="e_fr_energy">   -223.90042091 </i>
    <i name="e_wo_entrp">   -223.90042091 </i>
    <i name="e_0_energy">   -223.90042091 </i>
   </energy>
  </scstep>
  <structure>
   <crystal>
    <varray name="basis" >
     <v>      11.20400236       0.00000000       0.00000000 </v>
     <v>       0.00000000      11.20400236       0.00000000 </v>
     <v>       0.00000000       0.00000000      11.20400236 </v>
    </varray>
    <i name="volume">   1406.43470641 </i>
    <varray name="rec_basis" >
     <v>       0.08925382       0.00000000       0.00000000 </v>
     <v>       0.00000000       0.08925382       0.00000000 </v>
     <v>       0.00000000       0.00000000       0.08925382 </v>
    </varray>
   </crystal>
   <varray name="positions" >
    <v>       0.00000000       0.00000000       0.00000000 </v>
    <v>       0.25000000       0.25000000       0.00000000 </v>
    <v>       0.25000000       0.00000000       0.25000000 </v>
    <v>       0.00000000       0.25000000       0.25000000 </v>
    <v>       0.00000000       0.00000000       0.50000000 </v>
    <v>       0.25000000       0.25000000       0.50000000 </v>
    <v>       0.25000000       0.00000000       0.75000000 </v>
    <v>       0.00000000       0.25000000       0.75000000 </v>
    <v>       0.00000000       0.50000000       0.00000000 </v>
    <v>       0.25000000       0.75000000       0.00000000 </v>
    <v>       0.25000000       0.50000000       0.25000000 </v>
    <v>       0.00000000       0.75000000       0.25000000 </v>
    <v>       0.00000000       0.50000000       0.50000000 </v>
    <v>       0.25000000       0.75000000       0.50000000 </v>
    <v>       0.25000000       0.50000000       0.75000000 </v>
    <v>       0.00000000       0.75000000       0.75000000 </v>
    <v>       0.50000000       0.00000000       0.00000000 </v>
    <v>       0.75000000       0.25000000       0.00000000 </v>
    <v>       0.75000000       0.00000000       0.25000000 </v>
    <v>       0.50000000       0.25000000       0.25000000 </v>
    <v>       0.50000000       0.00000000       0.50000000 </v>
    <v>       0.75000000       0.25000000       0.50000000 </v>
    <v>       0.75000000       0.00000000       0.75000000 </v>
    <v>       0.50000000       0.25000000       0.75000000 </v>
    <v>       0.50000000       0.50000000       0.00000000 </v>
    <v>       0.75000000       0.75000000       0.00000000 </v>
    <v>       0.75000000       0.50000000       0.25000000 </v>
    <v>       0.50000000       0.75000000       0.25000000 </v>
    <v>       0.50000000       0.50000000       0.50000000 </v>
    <v>       0.75000000       0.75000000       0.50000000 </v>
    <v>       0.75000000       0.50000000       0.75000000 </v>
    <v>       0.50000000       0.75000000       0.75000000 </v>
    <v>       0.25267761       0.25000000       0.25000000 </v>
    <v>       0.00000000       0.00000000       0.25267761 </v>
    <v>       0.00000000       0.25000000       0.00000000 </v>
    <v>       0.25000000       0.00000000       0.00000000 </v>
    <v>       0.25000000       0.25000000       0.75000000 </v>
    <v>       0.00000000       0.00000000       0.75000000 </v>
    <v>       0.00000000       0.25000000       0.50000000 </v>
    <v>       0.25000000       0.00000000       0.50000000 </v>
    <v>       0.25000000       0.75000000       0.25000000 </v>
    <v>       0.00000000       0.50000000       0.25000000 </v>
    <v>       0.00000000       0.75000000       0.00000000 </v>
    <v>       0.25000000       0.50000000       0.00000000 </v>
    <v>       0.25000000       0.75000000       0.75000000 </v>
    <v>       0.00000000       0.50000000       0.75000000 </v>
    <v>       0.00000000       0.75000000       0.50000000 </v>
    <v>       0.25000000       0.50000000       0.50000000 </v>
    <v>       0.75000000       0.25000000       0.25000000 </v>
    <v>       0.50000000       0.00000000       0.25000000 </v>
    <v>       0.50000000       0.25000000       0.00000000 </v>
    <v>       0.75000000       0.00000000       0.00000000 </v>
    <v>       0.75000000       0.25000000       0.75000000 </v>
    <v>       0.50000000       0.00000000       0.75000000 </v>
    <v>       0.50000000       0.25000000       0.50000000 </v>
    <v>       0.75000000       0.00000000       0.50000000 </v>
    <v>       0.75000000       0.75000000       0.25000000 </v>
    <v>       0.50000000       0.50000000       0.25000000 </v>
    <v>       0.50000000       0.75000000       0.00000000 </v>
    <v>       0.75000000       0.50000000       0.00000000 </v>
    <v>       0.75000000       0.75000000       0.75000000 </v>
    <v>       0.50000000       0.50000000       0.75000000 </v>
    <v>       0.50000000       0.75000000       0.50000000 </v>
    <v>       0.75000000       0.50000000       0.50000000 </v>
   </varray>
  </structure>
  <varray name="forces" >
   <v>      -0.00024255      -0.00130128       0.01492170 </v>
   <v>       0.00631087       0.00129197      -0.00014943 </v>
   <v>       0.00492086       0.00009164       0.00501628 </v>
   <v>       0.01620664      -0.00009138       0.00503006 </v>
   <v>      -0.00022843      -0.00127906       0.02157157 </v>
   <v>       0.00370792      -0.00130030      -0.00031127 </v>
   <v>       0.00060556       0.00000183      -0.00283809 </v>
   <v>       0.00015139      -0.00000277      -0.00284066 </v>
   <v>      -0.00023603       0.00129442      -0.00113911 </v>
   <v>       0.00189682      -0.00129059      -0.00023302 </v>
   <v>       0.00501069      -0.00009202       0.00061080 </v>
   <v>       0.00015135       0.00009241       0.00499859 </v>
   <v>      -0.00023512       0.00128592       0.00145725 </v>
   <v>      -0.00068833       0.00129888      -0.00021457 </v>
   <v>       0.00060543      -0.00000183      -0.00067115 </v>
   <v>      -0.00000387       0.00000275      -0.00283174 </v>
   <v>      -0.00021114       0.00129924       0.00145047 </v>
   <v>      -0.00412870       0.00128870      -0.00023226 </v>
   <v>      -0.00274324       0.00000260       0.00500085 </v>
   <v>       0.02027607      -0.00000189       0.00060618 </v>
   <v>      -0.00021549       0.00129807      -0.00113096 </v>
   <v>      -0.00153489      -0.00129695      -0.00021570 </v>
   <v>      -0.00066769       0.00000286      -0.00283313 </v>
   <v>       0.00016746      -0.00000282      -0.00067053 </v>
   <v>      -0.00021307      -0.00129903       0.00129508 </v>
   <v>      -0.00195868      -0.00128831      -0.00023174 </v>
   <v>      -0.00283378      -0.00000268       0.00060833 </v>
   <v>       0.00016745       0.00000183       0.00060869 </v>
   <v>      -0.00021348      -0.00129831      -0.00129287 </v>
   <v>       0.00062585       0.00129639      -0.00021536 </v>
   <v>      -0.00066772      -0.00000282      -0.00067059 </v>
   <v>       0.00000572       0.00000287      -0.00067105 </v>
   <v>      -0.07607708      -0.00002917      -0.00230399 </v>
   <v>       0.00385898       0.00573221      -0.07610886 </v>
   <v>       0.00386960      -0.00573958       0.00960746 </v>
   <v>      -0.00807713       0.00003771       0.00389979 </v>
   <v>      -0.00154538       0.00000361       0.00154845 </v>
   <v>      -0.00003757       0.00056775       0.00384221 </v>
   <v>       0.00385211       0.00588835      -0.00180538 </v>
   <v>       0.00355037       0.00002296       0.00389603 </v>
   <v>      -0.00157924       0.00003064      -0.00233618 </v>
   <v>       0.00386060      -0.00573480      -0.00154961 </v>
   <v>      -0.00003627       0.00572856       0.00442242 </v>
   <v>      -0.00290587      -0.00003299      -0.00000583 </v>
   <v>      -0.00051578      -0.00000298       0.00154659 </v>
   <v>      -0.00003751      -0.00056779       0.00195985 </v>
   <v>      -0.00003947      -0.00587598       0.00334336 </v>
   <v>      -0.00176007      -0.00002744      -0.00008164 </v>
   <v>       0.00387214      -0.00003052      -0.00233760 </v>
   <v>       0.00391854      -0.00588339      -0.00154893 </v>
   <v>       0.00391811      -0.00056807      -0.00592142 </v>
   <v>       0.00727860      -0.00000104       0.00385563 </v>
   <v>       0.00195623       0.00000285       0.00154743 </v>
   <v>      -0.00005302      -0.00057528       0.00195881 </v>
   <v>       0.00391697       0.00057560       0.00582927 </v>
   <v>      -0.00433342      -0.00000581       0.00391915 </v>
   <v>       0.00198965       0.00002985      -0.00233302 </v>
   <v>       0.00391822       0.00588285      -0.00051945 </v>
   <v>      -0.00005403       0.00056737      -0.00061271 </v>
   <v>       0.00211506       0.00000260      -0.00004074 </v>
   <v>       0.00052462      -0.00000299       0.00154562 </v>
   <v>      -0.00005339       0.00057591       0.00052788 </v>
   <v>      -0.00005245      -0.00057536       0.00052297 </v>
   <v>       0.00097000       0.00000401      -0.00005013 </v>
  </varray>
  <varray name="stress" >
   <v>      -0.36597820       0.00000250       0.00001025 </v>
   <v>       0.00000250      -0.37746073       0.00014819 </v>
   <v>       0.00001015       0.00014824      -0.36633371 </v>
  </varray>
  <energy>
   <i name="e_fr_energy">   -223.90042091 </i>
   <i name="e_wo_entrp">   -223.90042091 </i>
   <i name="e_0_energy">   -223.90042091 </i>
  </energy>
  <time name="totalsc">  259.69  261.19</time>
  <eigenvalues>
   <array>
    <dimension dim="1">band</dimension>
    <dimension dim="2">kpoint</dimension>
    <dimension dim="3">spin</dimension>
    <field>eigene</field>
    <field>occ</field>
    <set>
     <set comment="spin 1">
      <set comment="kpoint 1">
       <r>  -21.3134    1.0000 </r>
       <r>  -21.3120    1.0000 </r>
       <r>  -21.3109    1.0000 </r>
       <r>  -21.3086    1.0000 </r>
       <r>  -21.3058    1.0000 </r>
       <r>  -21.3033    1.0000 </r>
       <r>  -21.3009    1.0000 </r>
       <r>  -21.3002    1.0000 </r>
       <r>  -21.2994    1.0000 </r>
       <r>  -21.2980    1.0000 </r>
       <r>  -21.2935    1.0000 </r>
       <r>  -21.2934    1.0000 </r>
       <r>  -21.2934    1.0000 </r>
       <r>  -21.2933    1.0000 </r>
       <r>  -21.2928    1.0000 </r>
       <r>  -21.2924    1.0000 </r>
       <r>  -21.2922    1.0000 </r>
       <r>  -21.2917    1.0000 </r>
       <r>  -21.2912    1.0000 </r>
       <r>  -21.2904    1.0000 </r>
       <r>  -21.2896    1.0000 </r>
       <r>  -21.2891    1.0000 </r>
       <r>  -21.2888    1.0000 </r>
       <r>  -21.2881    1.0000 </r>
       <r>  -21.2872    1.0000 </r>
       <r>  -21.2863    1.0000 </r>
       <r>  -21.2861    1.0000 </r>
       <r>  -21.2856    1.0000 </r>
       <r>  -21.2854    1.0000 </r>
       <r>  -21.2854    1.0000 </r>
       <r>  -21.2852    1.0000 </r>
       <r>  -21.2848    1.0000 </r>
       <r>  -21.2839    1.0000 </r>
       <r>  -21.2838    1.0000 </r>
       <r>  -21.2836    1.0000 </r>
       <r>  -21.2835    1.0000 </r>
       <r>  -21.2835    1.0000 </r>
       <r>  -21.2830    1.0000 </r>
       <r>  -21.2828    1.0000 </r>
       <r>  -21.2823    1.0000 </r>
       <r>  -21.2821    1.0000 </r>
       <r>  -21.2816    1.0000 </r>
       <r>  -21.2811    1.0000 </r>
       <r>  -21.2810    1.0000 </r>
       <r>  -21.2808    1.0000 </r>
       <r>  -21.2801    1.0000 </r>
       <r>  -21.2800    1.0000 </r>
       <r>  -21.2800    1.0000 </r>
       <r>  -21.2800    1.0000 </r>
       <r>  -21.2799    1.0000 </r>
       <r>  -21.2799    1.0000 </r>
       <r>  -21.2799    1.0000 </r>
       <r>  -21.2798    1.0000 </r>
       <r>  -21.2797    1.0000 </r>
       <r>  -21.2794    1.0000 </r>
       <r>  -21.2782    1.0000 </r>
       <r>  -21.2779    1.0000 </r>
       <r>  -21.2777    1.0000 </r>
       <r>  -21.2770    1.0000 </r>
       <r>  -21.2764    1.0000 </r>
       <r>  -21.2764    1.0000 </r>
       <r>  -21.2758    1.0000 </r>
       <r>  -21.2752    1.0000 </r>
       <r>  -21.2751    1.0000 </r>
       <r>  -21.2749    1.0000 </r>
       <r>  -21.2745    1.0000 </r>
       <r>  -21.2744    1.0000 </r>
       <r>  -21.2742    1.0000 </r>
       <r>  -21.2739    1.0000 </r>
       <r>  -21.2737    1.0000 </r>
       <r>  -21.2736    1.0000 </r>
       <r>  -21.2734    1.0000 </r>
       <r>  -21.2731    1.0000 </r>
       <r>  -21.2724    1.0000 </r>
       <r>  -21.2717    1.0000 </r>
       <r>  -21.2716    1.0000 </r>
       <r>  -21.2715    1.0000 </r>
       <r>  -21.2715    1.0000 </r>
       <r>  -21.2714    1.0000 </r>
       <r>  -21.2713    1.0000 </r>
       <r>  -21.2711    1.0000 </r>
       <r>  -21.2710    1.0000 </r>
       <r>  -21.2709    1.0000 </r>
       <r>  -21.2707    1.0000 </r>
       <r>  -21.2705    1.0000 </r>
       <r>  -21.2701    1.0000 </r>
       <r>  -21.2694    1.0000 </r>
       <r>  -21.2687    1.0000 </r>
       <r>  -21.2682    1.0000 </r>
       <r>  -21.2676    1.0000 </r>
       <r>  -21.2586    1.0000 </r>
       <r>  -21.2583    1.0000 </r>
       <r>  -21.2581    1.0000 </r>
       <r>  -21.2556    1.0000 </r>
       <r>  -21.2555    1.0000 </r>
       <r>  -21.2555    1.0000 </r>
       <r>  -13.3580    1.0000 </r>
       <r>  -13.1391    1.0000 </r>
       <r>  -13.1384    1.0000 </r>
       <r>  -13.1374    1.0000 </r>
       <r>  -13.1374    1.0000 </r>
       <r>  -13.1369    1.0000 </r>
       <r>  -13.1354    1.0000 </r>
       <r>  -13.0168    1.0000 </r>
       <r>  -13.0149    1.0000 </r>
       <r>  -13.0146    1.0000 </r>
       <r>  -13.0127    1.0000 </r>
       <r>  -13.0115    1.0000 </r>
       <r>  -13.0112    1.0000 </r>
       <r>  -13.0112    1.0000 </r>
       <r>  -13.0107    1.0000 </r>
       <r>  -13.0100    1.0000 </r>
       <r>  -13.0087    1.0000 </r>
       <r>  -13.0087    1.0000 </r>
       <r>  -13.0070    1.0000 </r>
       <r>  -12.9900    1.0000 </r>
       <r>  -12.9891    1.0000 </r>
       <r>  -12.9891    1.0000 </r>
       <r>  -12.9885    1.0000 </r>
       <r>  -12.9420    1.0000 </r>
       <r>  -12.9410    1.0000 </r>
       <r>  -12.9407    1.0000 </r>
       <r>  -12.9231    1.0000 </r>
       <r>  -12.9222    1.0000 </r>
       <r>  -12.9213    1.0000 </r>
       <r>  -12.9211    1.0000 </r>
       <r>  -12.9195    1.0000 </r>
       <r>  -12.9183    1.0000 </r>
       <r>   -2.7000    1.0000 </r>
       <r>   -2.7000    1.0000 </r>
       <r>   -2.6999    1.0000 </r>
       <r>   -2.6999    1.0000 </r>
       <r>   -2.4240    1.0000 </r>
       <r>   -2.4240    1.0000 </r>
       <r>   -2.4239    1.0000 </r>
       <r>   -2.2057    1.0000 </r>
       <r>   -2.2051    1.0000 </r>
       <r>   -2.2050    1.0000 </r>
       <r>   -2.2048    1.0000 </r>
       <r>   -2.2047    1.0000 </r>
       <r>   -2.2043    1.0000 </r>
       <r>   -2.2042    1.0000 </r>
       <r>   -2.2039    1.0000 </r>
       <r>   -2.2037    1.0000 </r>
       <r>   -2.2034    1.0000 </r>
       <r>   -2.2032    1.0000 </r>
       <r>   -2.2028    1.0000 </r>
       <r>   -1.9274    1.0000 </r>
       <r>   -1.9273    1.0000 </r>
       <r>   -1.9263    1.0000 </r>
       <r>   -1.9260    1.0000 </r>
       <r>   -1.9250    1.0000 </r>
       <r>   -1.9246    1.0000 </r>
       <r>   -1.9246    1.0000 </r>
       <r>   -1.9245    1.0000 </r>
       <r>   -1.9232    1.0000 </r>
       <r>   -1.9231    1.0000 </r>
       <r>   -1.9226    1.0000 </r>
       <r>   -1.9215    1.0000 </r>
       <r>   -1.7970    1.0000 </r>
       <r>   -1.7969    1.0000 </r>
       <r>   -1.7966    1.0000 </r>
       <r>   -1.7966    1.0000 </r>
       <r>   -1.7963    1.0000 </r>
       <r>   -1.7962    1.0000 </r>
       <r>   -1.5101    1.0000 </r>
       <r>   -1.5091    1.0000 </r>
       <r>   -1.5079    1.0000 </r>
       <r>   -1.5055    1.0000 </r>
       <r>   -1.5054    1.0000 </r>
       <r>   -1.5054    1.0000 </r>
       <r>   -1.5053    1.0000 </r>
       <r>   -1.5053    1.0000 </r>
       <r>   -1.5050    1.0000 </r>
       <r>   -1.5028    1.0000 </r>
       <r>   -1.5018    1.0000 </r>
       <r>   -1.5008    1.0000 </r>
       <r>   -1.4652    1.0000 </r>
       <r>   -1.4638    1.0000 </r>
       <r>   -1.4628    1.0000 </r>
       <r>   -1.4628    1.0000 </r>
       <r>   -1.4617    1.0000 </r>
       <r>   -1.4602    1.0000 </r>
       <r>   -1.2947    1.0000 </r>
       <r>   -1.2947    1.0000 </r>
       <r>   -1.2946    1.0000 </r>
       <r>   -1.2946    1.0000 </r>
       <r>   -1.2945    1.0000 </r>
       <r>   -1.2945    1.0000 </r>
       <r>   -1.0051    1.0000 </r>
       <r>   -1.0041    1.0000 </r>
       <r>   -1.0030    1.0000 </r>
       <r>   -1.0014    1.0000 </r>
       <r>   -1.0010    1.0000 </r>
       <r>   -1.0009    1.0000 </r>
       <r>   -1.0008    1.0000 </r>
       <r>   -1.0005    1.0000 </r>
       <r>   -0.9999    1.0000 </r>
       <r>   -0.9984    1.0000 </r>
       <r>   -0.9978    1.0000 </r>
       <r>   -0.9969    1.0000 </r>
       <r>   -0.9536    1.0000 </r>
       <r>   -0.9519    1.0000 </r>
       <r>   -0.9515    1.0000 </r>
       <r>   -0.9506    1.0000 </r>
       <r>   -0.9488    1.0000 </r>
       <r>   -0.9479    1.0000 </r>
       <r>   -0.9477    1.0000 </r>
       <r>   -0.9476    1.0000 </r>
       <r>   -0.9476    1.0000 </r>
       <r>   -0.9474    1.0000 </r>
       <r>   -0.9469    1.0000 </r>
       <r>   -0.9459    1.0000 </r>
       <r>   -0.9457    1.0000 </r>
       <r>   -0.9456    1.0000 </r>
       <r>   -0.9455    1.0000 </r>
       <r>   -0.9449    1.0000 </r>
       <r>   -0.9428    1.0000 </r>
       <r>   -0.9421    1.0000 </r>
       <r>   -0.9417    1.0000 </r>
       <r>   -0.9416    1.0000 </r>
       <r>   -0.6649    1.0000 </r>
       <r>   -0.6649    1.0000 </r>
       <r>   -0.6648    1.0000 </r>
       <r>    4.3402    0.0000 </r>
       <r>    6.3581    0.0000 </r>
       <r>    6.3644    0.0000 </r>
       <r>    6.3680    0.0000 </r>
       <r>    6.3681    0.0000 </r>
       <r>    6.3722    0.0000 </r>
       <r>    6.3764    0.0000 </r>
       <r>    6.4446    0.0000 </r>
       <r>    6.4447    0.0000 </r>
       <r>    6.4448    0.0000 </r>
       <r>    6.4451    0.0000 </r>
       <r>    6.8279    0.0000 </r>
       <r>    6.8280    0.0000 </r>
       <r>    6.8281    0.0000 </r>
       <r>    7.2067    0.0000 </r>
       <r>    7.2068    0.0000 </r>
       <r>    7.2068    0.0000 </r>
       <r>    7.4501    0.0000 </r>
       <r>    7.4544    0.0000 </r>
       <r>    7.4591    0.0000 </r>
       <r>    7.4603    0.0000 </r>
       <r>    7.4630    0.0000 </r>
       <r>    7.4642    0.0000 </r>
       <r>    7.4642    0.0000 </r>
       <r>    7.4678    0.0000 </r>
       <r>    7.4680    0.0000 </r>
       <r>    7.4700    0.0000 </r>
       <r>    7.4723    0.0000 </r>
       <r>    7.4761    0.0000 </r>
       <r>    8.1610    0.0000 </r>
       <r>    8.1653    0.0000 </r>
       <r>    8.1682    0.0000 </r>
       <r>    8.1683    0.0000 </r>
       <r>    8.1713    0.0000 </r>
       <r>    8.1756    0.0000 </r>
       <r>    8.2775    0.0000 </r>
       <r>    8.2780    0.0000 </r>
       <r>    8.2796    0.0000 </r>
       <r>    8.2797    0.0000 </r>
       <r>    8.2806    0.0000 </r>
       <r>    8.2823    0.0000 </r>
       <r>    8.8833    0.0000 </r>
       <r>    8.8900    0.0000 </r>
       <r>    8.8921    0.0000 </r>
       <r>    8.8988    0.0000 </r>
       <r>    8.8999    0.0000 </r>
       <r>    8.9005    0.0000 </r>
       <r>    8.9013    0.0000 </r>
       <r>    8.9020    0.0000 </r>
       <r>    8.9032    0.0000 </r>
       <r>    8.9040    0.0000 </r>
       <r>    8.9057    0.0000 </r>
       <r>    8.9076    0.0000 </r>
       <r>    8.9106    0.0000 </r>
       <r>    8.9130    0.0000 </r>
       <r>    8.9147    0.0000 </r>
       <r>    8.9155    0.0000 </r>
       <r>    8.9167    0.0000 </r>
       <r>    8.9169    0.0000 </r>
       <r>    8.9179    0.0000 </r>
       <r>    8.9201    0.0000 </r>
       <r>    8.9248    0.0000 </r>
       <r>    8.9273    0.0000 </r>
       <r>    8.9306    0.0000 </r>
      </set>
      <set comment="kpoint 2">
       <r>  -21.3130    1.0000 </r>
       <r>  -21.3115    1.0000 </r>
       <r>  -21.3101    1.0000 </r>
       <r>  -21.3078    1.0000 </r>
       <r>  -21.3057    1.0000 </r>
       <r>  -21.3032    1.0000 </r>
       <r>  -21.2989    1.0000 </r>
       <r>  -21.2983    1.0000 </r>
       <r>  -21.2981    1.0000 </r>
       <r>  -21.2975    1.0000 </r>
       <r>  -21.2968    1.0000 </r>
       <r>  -21.2967    1.0000 </r>
       <r>  -21.2964    1.0000 </r>
       <r>  -21.2945    1.0000 </r>
       <r>  -21.2923    1.0000 </r>
       <r>  -21.2916    1.0000 </r>
       <r>  -21.2916    1.0000 </r>
       <r>  -21.2914    1.0000 </r>
       <r>  -21.2901    1.0000 </r>
       <r>  -21.2898    1.0000 </r>
       <r>  -21.2898    1.0000 </r>
       <r>  -21.2893    1.0000 </r>
       <r>  -21.2888    1.0000 </r>
       <r>  -21.2888    1.0000 </r>
       <r>  -21.2884    1.0000 </r>
       <r>  -21.2876    1.0000 </r>
       <r>  -21.2875    1.0000 </r>
       <r>  -21.2874    1.0000 </r>
       <r>  -21.2871    1.0000 </r>
       <r>  -21.2867    1.0000 </r>
       <r>  -21.2867    1.0000 </r>
       <r>  -21.2863    1.0000 </r>
       <r>  -21.2855    1.0000 </r>
       <r>  -21.2849    1.0000 </r>
       <r>  -21.2848    1.0000 </r>
       <r>  -21.2834    1.0000 </r>
       <r>  -21.2829    1.0000 </r>
       <r>  -21.2829    1.0000 </r>
       <r>  -21.2828    1.0000 </r>
       <r>  -21.2828    1.0000 </r>
       <r>  -21.2820    1.0000 </r>
       <r>  -21.2820    1.0000 </r>
       <r>  -21.2815    1.0000 </r>
       <r>  -21.2807    1.0000 </r>
       <r>  -21.2804    1.0000 </r>
       <r>  -21.2800    1.0000 </r>
       <r>  -21.2794    1.0000 </r>
       <r>  -21.2793    1.0000 </r>
       <r>  -21.2790    1.0000 </r>
       <r>  -21.2789    1.0000 </r>
       <r>  -21.2787    1.0000 </r>
       <r>  -21.2780    1.0000 </r>
       <r>  -21.2775    1.0000 </r>
       <r>  -21.2772    1.0000 </r>
       <r>  -21.2770    1.0000 </r>
       <r>  -21.2768    1.0000 </r>
       <r>  -21.2767    1.0000 </r>
       <r>  -21.2765    1.0000 </r>
       <r>  -21.2762    1.0000 </r>
       <r>  -21.2757    1.0000 </r>
       <r>  -21.2757    1.0000 </r>
       <r>  -21.2755    1.0000 </r>
       <r>  -21.2750    1.0000 </r>
       <r>  -21.2750    1.0000 </r>
       <r>  -21.2748    1.0000 </r>
       <r>  -21.2747    1.0000 </r>
       <r>  -21.2747    1.0000 </r>
       <r>  -21.2744    1.0000 </r>
       <r>  -21.2743    1.0000 </r>
       <r>  -21.2738    1.0000 </r>
       <r>  -21.2737    1.0000 </r>
       <r>  -21.2734    1.0000 </r>
       <r>  -21.2732    1.0000 </r>
       <r>  -21.2729    1.0000 </r>
       <r>  -21.2727    1.0000 </r>
       <r>  -21.2725    1.0000 </r>
       <r>  -21.2720    1.0000 </r>
       <r>  -21.2718    1.0000 </r>
       <r>  -21.2716    1.0000 </r>
       <r>  -21.2715    1.0000 </r>
       <r>  -21.2712    1.0000 </r>
       <r>  -21.2711    1.0000 </r>
       <r>  -21.2710    1.0000 </r>
       <r>  -21.2708    1.0000 </r>
       <r>  -21.2706    1.0000 </r>
       <r>  -21.2703    1.0000 </r>
       <r>  -21.2698    1.0000 </r>
       <r>  -21.2690    1.0000 </r>
       <r>  -21.2688    1.0000 </r>
       <r>  -21.2679    1.0000 </r>
       <r>  -21.2587    1.0000 </r>
       <r>  -21.2584    1.0000 </r>
       <r>  -21.2583    1.0000 </r>
       <r>  -21.2557    1.0000 </r>
       <r>  -21.2556    1.0000 </r>
       <r>  -21.2555    1.0000 </r>
       <r>  -13.2930    1.0000 </r>
       <r>  -13.2894    1.0000 </r>
       <r>  -13.1003    1.0000 </r>
       <r>  -13.0992    1.0000 </r>
       <r>  -13.0988    1.0000 </r>
       <r>  -13.0977    1.0000 </r>
       <r>  -13.0963    1.0000 </r>
       <r>  -13.0956    1.0000 </r>
       <r>  -13.0947    1.0000 </r>
       <r>  -13.0932    1.0000 </r>
       <r>  -13.0053    1.0000 </r>
       <r>  -13.0052    1.0000 </r>
       <r>  -13.0017    1.0000 </r>
       <r>  -13.0010    1.0000 </r>
       <r>  -13.0007    1.0000 </r>
       <r>  -13.0004    1.0000 </r>
       <r>  -12.9973    1.0000 </r>
       <r>  -12.9962    1.0000 </r>
       <r>  -12.9962    1.0000 </r>
       <r>  -12.9927    1.0000 </r>
       <r>  -12.9481    1.0000 </r>
       <r>  -12.9462    1.0000 </r>
       <r>  -12.9459    1.0000 </r>
       <r>  -12.9447    1.0000 </r>
       <r>  -12.9429    1.0000 </r>
       <r>  -12.9418    1.0000 </r>
       <r>  -12.9407    1.0000 </r>
       <r>  -12.9401    1.0000 </r>
       <r>  -12.9339    1.0000 </r>
       <r>  -12.9307    1.0000 </r>
       <r>  -12.9305    1.0000 </r>
       <r>  -12.9263    1.0000 </r>
       <r>   -2.5075    1.0000 </r>
       <r>   -2.5068    1.0000 </r>
       <r>   -2.5047    1.0000 </r>
       <r>   -2.5046    1.0000 </r>
       <r>   -2.5039    1.0000 </r>
       <r>   -2.5039    1.0000 </r>
       <r>   -2.5020    1.0000 </r>
       <r>   -2.5011    1.0000 </r>
       <r>   -2.2891    1.0000 </r>
       <r>   -2.2890    1.0000 </r>
       <r>   -2.2863    1.0000 </r>
       <r>   -2.2863    1.0000 </r>
       <r>   -2.2761    1.0000 </r>
       <r>   -2.2721    1.0000 </r>
       <r>   -2.1394    1.0000 </r>
       <r>   -2.1376    1.0000 </r>
       <r>   -2.1368    1.0000 </r>
       <r>   -2.1367    1.0000 </r>
       <r>   -2.1362    1.0000 </r>
       <r>   -2.1357    1.0000 </r>
       <r>   -2.1351    1.0000 </r>
       <r>   -2.1336    1.0000 </r>
       <r>   -1.9869    1.0000 </r>
       <r>   -1.9867    1.0000 </r>
       <r>   -1.9866    1.0000 </r>
       <r>   -1.9862    1.0000 </r>
       <r>   -1.9848    1.0000 </r>
       <r>   -1.9843    1.0000 </r>
       <r>   -1.9841    1.0000 </r>
       <r>   -1.9837    1.0000 </r>
       <r>   -1.8137    1.0000 </r>
       <r>   -1.8108    1.0000 </r>
       <r>   -1.8102    1.0000 </r>
       <r>   -1.8080    1.0000 </r>
       <r>   -1.8078    1.0000 </r>
       <r>   -1.8067    1.0000 </r>
       <r>   -1.8066    1.0000 </r>
       <r>   -1.8064    1.0000 </r>
       <r>   -1.5010    1.0000 </r>
       <r>   -1.5010    1.0000 </r>
       <r>   -1.4945    1.0000 </r>
       <r>   -1.4945    1.0000 </r>
       <r>   -1.3844    1.0000 </r>
       <r>   -1.3808    1.0000 </r>
       <r>   -1.3802    1.0000 </r>
       <r>   -1.3763    1.0000 </r>
       <r>   -1.2146    1.0000 </r>
       <r>   -1.2140    1.0000 </r>
       <r>   -1.2110    1.0000 </r>
       <r>   -1.2107    1.0000 </r>
       <r>   -1.1949    1.0000 </r>
       <r>   -1.1921    1.0000 </r>
       <r>   -1.1917    1.0000 </r>
       <r>   -1.1916    1.0000 </r>
       <r>   -1.1913    1.0000 </r>
       <r>   -1.1906    1.0000 </r>
       <r>   -1.1900    1.0000 </r>
       <r>   -1.1886    1.0000 </r>
       <r>   -1.1796    1.0000 </r>
       <r>   -1.1773    1.0000 </r>
       <r>   -1.1761    1.0000 </r>
       <r>   -1.1750    1.0000 </r>
       <r>   -1.1720    1.0000 </r>
       <r>   -1.1710    1.0000 </r>
       <r>   -1.1703    1.0000 </r>
       <r>   -1.1700    1.0000 </r>
       <r>   -1.1656    1.0000 </r>
       <r>   -1.1627    1.0000 </r>
       <r>   -1.1616    1.0000 </r>
       <r>   -1.1601    1.0000 </r>
       <r>   -1.1576    1.0000 </r>
       <r>   -1.1570    1.0000 </r>
       <r>   -1.1553    1.0000 </r>
       <r>   -1.1551    1.0000 </r>
       <r>   -1.0857    1.0000 </r>
       <r>   -1.0808    1.0000 </r>
       <r>   -0.9514    1.0000 </r>
       <r>   -0.9512    1.0000 </r>
       <r>   -0.9470    1.0000 </r>
       <r>   -0.9469    1.0000 </r>
       <r>   -0.9468    1.0000 </r>
       <r>   -0.9465    1.0000 </r>
       <r>   -0.9426    1.0000 </r>
       <r>   -0.9423    1.0000 </r>
       <r>   -0.9362    1.0000 </r>
       <r>   -0.9341    1.0000 </r>
       <r>   -0.9333    1.0000 </r>
       <r>   -0.9324    1.0000 </r>
       <r>   -0.9313    1.0000 </r>
       <r>   -0.9312    1.0000 </r>
       <r>   -0.9304    1.0000 </r>
       <r>   -0.9290    1.0000 </r>
       <r>   -0.7711    1.0000 </r>
       <r>   -0.7711    1.0000 </r>
       <r>   -0.7654    1.0000 </r>
       <r>   -0.7654    1.0000 </r>
       <r>    5.0187    0.0000 </r>
       <r>    5.0259    0.0000 </r>
       <r>    6.7048    0.0000 </r>
       <r>    6.7099    0.0000 </r>
       <r>    6.7166    0.0000 </r>
       <r>    6.7191    0.0000 </r>
       <r>    6.7205    0.0000 </r>
       <r>    6.7226    0.0000 </r>
       <r>    6.7235    0.0000 </r>
       <r>    6.7262    0.0000 </r>
       <r>    6.8368    0.0000 </r>
       <r>    6.8377    0.0000 </r>
       <r>    6.8401    0.0000 </r>
       <r>    6.8426    0.0000 </r>
       <r>    6.8456    0.0000 </r>
       <r>    6.8474    0.0000 </r>
       <r>    6.8482    0.0000 </r>
       <r>    6.8484    0.0000 </r>
       <r>    6.9685    0.0000 </r>
       <r>    6.9741    0.0000 </r>
       <r>    7.3563    0.0000 </r>
       <r>    7.3625    0.0000 </r>
       <r>    7.3626    0.0000 </r>
       <r>    7.3689    0.0000 </r>
       <r>    7.4789    0.0000 </r>
       <r>    7.4816    0.0000 </r>
       <r>    7.7109    0.0000 </r>
       <r>    7.7110    0.0000 </r>
       <r>    7.7182    0.0000 </r>
       <r>    7.7183    0.0000 </r>
       <r>    8.2542    0.0000 </r>
       <r>    8.2590    0.0000 </r>
       <r>    8.2648    0.0000 </r>
       <r>    8.2662    0.0000 </r>
       <r>    8.2679    0.0000 </r>
       <r>    8.2684    0.0000 </r>
       <r>    8.2702    0.0000 </r>
       <r>    8.2750    0.0000 </r>
       <r>    8.5241    0.0000 </r>
       <r>    8.5279    0.0000 </r>
       <r>    8.5304    0.0000 </r>
       <r>    8.5321    0.0000 </r>
       <r>    8.5348    0.0000 </r>
       <r>    8.5356    0.0000 </r>
       <r>    8.5380    0.0000 </r>
       <r>    8.5384    0.0000 </r>
       <r>    8.5393    0.0000 </r>
       <r>    8.5398    0.0000 </r>
       <r>    8.5406    0.0000 </r>
       <r>    8.5426    0.0000 </r>
       <r>    8.5454    0.0000 </r>
       <r>    8.5469    0.0000 </r>
       <r>    8.5485    0.0000 </r>
       <r>    8.5520    0.0000 </r>
       <r>    8.9382    0.0000 </r>
       <r>    8.9483    0.0000 </r>
       <r>    8.9500    0.0000 </r>
       <r>    8.9512    0.0000 </r>
       <r>    8.9527    0.0000 </r>
       <r>    8.9549    0.0000 </r>
       <r>    8.9558    0.0000 </r>
       <r>    8.9569    0.0000 </r>
       <r>    9.4867    0.0000 </r>
       <r>    9.5151    0.0000 </r>
      </set>
      <set comment="kpoint 3">
       <r>  -21.3125    1.0000 </r>
       <r>  -21.3109    1.0000 </r>
       <r>  -21.3103    1.0000 </r>
       <r>  -21.3078    1.0000 </r>
       <r>  -21.3066    1.0000 </r>
       <r>  -21.3045    1.0000 </r>
       <r>  -21.2998    1.0000 </r>
       <r>  -21.2994    1.0000 </r>
       <r>  -21.2980    1.0000 </r>
       <r>  -21.2977    1.0000 </r>
       <r>  -21.2959    1.0000 </r>
       <r>  -21.2944    1.0000 </r>
       <r>  -21.2939    1.0000 </r>
       <r>  -21.2934    1.0000 </r>
       <r>  -21.2924    1.0000 </r>
       <r>  -21.2914    1.0000 </r>
       <r>  -21.2914    1.0000 </r>
       <r>  -21.2912    1.0000 </r>
       <r>  -21.2911    1.0000 </r>
       <r>  -21.2903    1.0000 </r>
       <r>  -21.2901    1.0000 </r>
       <r>  -21.2898    1.0000 </r>
       <r>  -21.2889    1.0000 </r>
       <r>  -21.2885    1.0000 </r>
       <r>  -21.2884    1.0000 </r>
       <r>  -21.2882    1.0000 </r>
       <r>  -21.2879    1.0000 </r>
       <r>  -21.2879    1.0000 </r>
       <r>  -21.2875    1.0000 </r>
       <r>  -21.2867    1.0000 </r>
       <r>  -21.2861    1.0000 </r>
       <r>  -21.2857    1.0000 </r>
       <r>  -21.2851    1.0000 </r>
       <r>  -21.2845    1.0000 </r>
       <r>  -21.2842    1.0000 </r>
       <r>  -21.2842    1.0000 </r>
       <r>  -21.2840    1.0000 </r>
       <r>  -21.2837    1.0000 </r>
       <r>  -21.2835    1.0000 </r>
       <r>  -21.2829    1.0000 </r>
       <r>  -21.2822    1.0000 </r>
       <r>  -21.2821    1.0000 </r>
       <r>  -21.2820    1.0000 </r>
       <r>  -21.2814    1.0000 </r>
       <r>  -21.2808    1.0000 </r>
       <r>  -21.2803    1.0000 </r>
       <r>  -21.2792    1.0000 </r>
       <r>  -21.2784    1.0000 </r>
       <r>  -21.2784    1.0000 </r>
       <r>  -21.2784    1.0000 </r>
       <r>  -21.2776    1.0000 </r>
       <r>  -21.2776    1.0000 </r>
       <r>  -21.2774    1.0000 </r>
       <r>  -21.2768    1.0000 </r>
       <r>  -21.2767    1.0000 </r>
       <r>  -21.2766    1.0000 </r>
       <r>  -21.2764    1.0000 </r>
       <r>  -21.2764    1.0000 </r>
       <r>  -21.2763    1.0000 </r>
       <r>  -21.2762    1.0000 </r>
       <r>  -21.2760    1.0000 </r>
       <r>  -21.2756    1.0000 </r>
       <r>  -21.2755    1.0000 </r>
       <r>  -21.2752    1.0000 </r>
       <r>  -21.2750    1.0000 </r>
       <r>  -21.2748    1.0000 </r>
       <r>  -21.2744    1.0000 </r>
       <r>  -21.2743    1.0000 </r>
       <r>  -21.2741    1.0000 </r>
       <r>  -21.2740    1.0000 </r>
       <r>  -21.2739    1.0000 </r>
       <r>  -21.2738    1.0000 </r>
       <r>  -21.2730    1.0000 </r>
       <r>  -21.2728    1.0000 </r>
       <r>  -21.2727    1.0000 </r>
       <r>  -21.2726    1.0000 </r>
       <r>  -21.2721    1.0000 </r>
       <r>  -21.2718    1.0000 </r>
       <r>  -21.2717    1.0000 </r>
       <r>  -21.2714    1.0000 </r>
       <r>  -21.2710    1.0000 </r>
       <r>  -21.2710    1.0000 </r>
       <r>  -21.2708    1.0000 </r>
       <r>  -21.2707    1.0000 </r>
       <r>  -21.2701    1.0000 </r>
       <r>  -21.2698    1.0000 </r>
       <r>  -21.2697    1.0000 </r>
       <r>  -21.2696    1.0000 </r>
       <r>  -21.2688    1.0000 </r>
       <r>  -21.2687    1.0000 </r>
       <r>  -21.2587    1.0000 </r>
       <r>  -21.2585    1.0000 </r>
       <r>  -21.2582    1.0000 </r>
       <r>  -21.2557    1.0000 </r>
       <r>  -21.2556    1.0000 </r>
       <r>  -21.2555    1.0000 </r>
       <r>  -13.2913    1.0000 </r>
       <r>  -13.2912    1.0000 </r>
       <r>  -13.0991    1.0000 </r>
       <r>  -13.0983    1.0000 </r>
       <r>  -13.0979    1.0000 </r>
       <r>  -13.0971    1.0000 </r>
       <r>  -13.0969    1.0000 </r>
       <r>  -13.0966    1.0000 </r>
       <r>  -13.0953    1.0000 </r>
       <r>  -13.0949    1.0000 </r>
       <r>  -13.0029    1.0000 </r>
       <r>  -13.0018    1.0000 </r>
       <r>  -13.0011    1.0000 </r>
       <r>  -13.0008    1.0000 </r>
       <r>  -13.0006    1.0000 </r>
       <r>  -13.0006    1.0000 </r>
       <r>  -13.0004    1.0000 </r>
       <r>  -12.9997    1.0000 </r>
       <r>  -12.9948    1.0000 </r>
       <r>  -12.9947    1.0000 </r>
       <r>  -12.9459    1.0000 </r>
       <r>  -12.9453    1.0000 </r>
       <r>  -12.9445    1.0000 </r>
       <r>  -12.9437    1.0000 </r>
       <r>  -12.9436    1.0000 </r>
       <r>  -12.9432    1.0000 </r>
       <r>  -12.9425    1.0000 </r>
       <r>  -12.9420    1.0000 </r>
       <r>  -12.9308    1.0000 </r>
       <r>  -12.9307    1.0000 </r>
       <r>  -12.9295    1.0000 </r>
       <r>  -12.9293    1.0000 </r>
       <r>   -2.5054    1.0000 </r>
       <r>   -2.5051    1.0000 </r>
       <r>   -2.5046    1.0000 </r>
       <r>   -2.5045    1.0000 </r>
       <r>   -2.5041    1.0000 </r>
       <r>   -2.5041    1.0000 </r>
       <r>   -2.5035    1.0000 </r>
       <r>   -2.5032    1.0000 </r>
       <r>   -2.2877    1.0000 </r>
       <r>   -2.2877    1.0000 </r>
       <r>   -2.2876    1.0000 </r>
       <r>   -2.2876    1.0000 </r>
       <r>   -2.2741    1.0000 </r>
       <r>   -2.2741    1.0000 </r>
       <r>   -2.1379    1.0000 </r>
       <r>   -2.1378    1.0000 </r>
       <r>   -2.1366    1.0000 </r>
       <r>   -2.1365    1.0000 </r>
       <r>   -2.1362    1.0000 </r>
       <r>   -2.1362    1.0000 </r>
       <r>   -2.1352    1.0000 </r>
       <r>   -2.1346    1.0000 </r>
       <r>   -1.9861    1.0000 </r>
       <r>   -1.9860    1.0000 </r>
       <r>   -1.9855    1.0000 </r>
       <r>   -1.9854    1.0000 </r>
       <r>   -1.9854    1.0000 </r>
       <r>   -1.9853    1.0000 </r>
       <r>   -1.9849    1.0000 </r>
       <r>   -1.9847    1.0000 </r>
       <r>   -1.8124    1.0000 </r>
       <r>   -1.8119    1.0000 </r>
       <r>   -1.8088    1.0000 </r>
       <r>   -1.8087    1.0000 </r>
       <r>   -1.8087    1.0000 </r>
       <r>   -1.8086    1.0000 </r>
       <r>   -1.8070    1.0000 </r>
       <r>   -1.8040    1.0000 </r>
       <r>   -1.4978    1.0000 </r>
       <r>   -1.4978    1.0000 </r>
       <r>   -1.4978    1.0000 </r>
       <r>   -1.4978    1.0000 </r>
       <r>   -1.3805    1.0000 </r>
       <r>   -1.3805    1.0000 </r>
       <r>   -1.3804    1.0000 </r>
       <r>   -1.3804    1.0000 </r>
       <r>   -1.2130    1.0000 </r>
       <r>   -1.2128    1.0000 </r>
       <r>   -1.2126    1.0000 </r>
       <r>   -1.2125    1.0000 </r>
       <r>   -1.1925    1.0000 </r>
       <r>   -1.1919    1.0000 </r>
       <r>   -1.1915    1.0000 </r>
       <r>   -1.1914    1.0000 </r>
       <r>   -1.1907    1.0000 </r>
       <r>   -1.1905    1.0000 </r>
       <r>   -1.1903    1.0000 </r>
       <r>   -1.1898    1.0000 </r>
       <r>   -1.1778    1.0000 </r>
       <r>   -1.1755    1.0000 </r>
       <r>   -1.1745    1.0000 </r>
       <r>   -1.1740    1.0000 </r>
       <r>   -1.1738    1.0000 </r>
       <r>   -1.1734    1.0000 </r>
       <r>   -1.1728    1.0000 </r>
       <r>   -1.1711    1.0000 </r>
       <r>   -1.1623    1.0000 </r>
       <r>   -1.1617    1.0000 </r>
       <r>   -1.1596    1.0000 </r>
       <r>   -1.1595    1.0000 </r>
       <r>   -1.1592    1.0000 </r>
       <r>   -1.1591    1.0000 </r>
       <r>   -1.1579    1.0000 </r>
       <r>   -1.1559    1.0000 </r>
       <r>   -1.0833    1.0000 </r>
       <r>   -1.0832    1.0000 </r>
       <r>   -0.9487    1.0000 </r>
       <r>   -0.9476    1.0000 </r>
       <r>   -0.9469    1.0000 </r>
       <r>   -0.9469    1.0000 </r>
       <r>   -0.9467    1.0000 </r>
       <r>   -0.9466    1.0000 </r>
       <r>   -0.9462    1.0000 </r>
       <r>   -0.9451    1.0000 </r>
       <r>   -0.9356    1.0000 </r>
       <r>   -0.9343    1.0000 </r>
       <r>   -0.9329    1.0000 </r>
       <r>   -0.9324    1.0000 </r>
       <r>   -0.9322    1.0000 </r>
       <r>   -0.9312    1.0000 </r>
       <r>   -0.9299    1.0000 </r>
       <r>   -0.9292    1.0000 </r>
       <r>   -0.7683    1.0000 </r>
       <r>   -0.7683    1.0000 </r>
       <r>   -0.7682    1.0000 </r>
       <r>   -0.7681    1.0000 </r>
       <r>    5.0222    0.0000 </r>
       <r>    5.0223    0.0000 </r>
       <r>    6.7049    0.0000 </r>
       <r>    6.7127    0.0000 </r>
       <r>    6.7176    0.0000 </r>
       <r>    6.7180    0.0000 </r>
       <r>    6.7189    0.0000 </r>
       <r>    6.7195    0.0000 </r>
       <r>    6.7238    0.0000 </r>
       <r>    6.7275    0.0000 </r>
       <r>    6.8377    0.0000 </r>
       <r>    6.8401    0.0000 </r>
       <r>    6.8404    0.0000 </r>
       <r>    6.8429    0.0000 </r>
       <r>    6.8436    0.0000 </r>
       <r>    6.8463    0.0000 </r>
       <r>    6.8467    0.0000 </r>
       <r>    6.8495    0.0000 </r>
       <r>    6.9711    0.0000 </r>
       <r>    6.9713    0.0000 </r>
       <r>    7.3625    0.0000 </r>
       <r>    7.3625    0.0000 </r>
       <r>    7.3627    0.0000 </r>
       <r>    7.3627    0.0000 </r>
       <r>    7.4802    0.0000 </r>
       <r>    7.4803    0.0000 </r>
       <r>    7.7145    0.0000 </r>
       <r>    7.7146    0.0000 </r>
       <r>    7.7146    0.0000 </r>
       <r>    7.7147    0.0000 </r>
       <r>    8.2563    0.0000 </r>
       <r>    8.2622    0.0000 </r>
       <r>    8.2650    0.0000 </r>
       <r>    8.2652    0.0000 </r>
       <r>    8.2667    0.0000 </r>
       <r>    8.2670    0.0000 </r>
       <r>    8.2714    0.0000 </r>
       <r>    8.2730    0.0000 </r>
       <r>    8.5242    0.0000 </r>
       <r>    8.5292    0.0000 </r>
       <r>    8.5306    0.0000 </r>
       <r>    8.5342    0.0000 </r>
       <r>    8.5358    0.0000 </r>
       <r>    8.5366    0.0000 </r>
       <r>    8.5376    0.0000 </r>
       <r>    8.5385    0.0000 </r>
       <r>    8.5391    0.0000 </r>
       <r>    8.5398    0.0000 </r>
       <r>    8.5412    0.0000 </r>
       <r>    8.5429    0.0000 </r>
       <r>    8.5438    0.0000 </r>
       <r>    8.5454    0.0000 </r>
       <r>    8.5466    0.0000 </r>
       <r>    8.5505    0.0000 </r>
       <r>    8.9381    0.0000 </r>
       <r>    8.9462    0.0000 </r>
       <r>    8.9506    0.0000 </r>
       <r>    8.9508    0.0000 </r>
       <r>    8.9509    0.0000 </r>
       <r>    8.9516    0.0000 </r>
       <r>    8.9585    0.0000 </r>
       <r>    8.9607    0.0000 </r>
       <r>    9.4888    0.0000 </r>
       <r>    9.5068    0.0000 </r>
      </set>
      <set comment="kpoint 4">
       <r>  -21.3127    1.0000 </r>
       <r>  -21.3112    1.0000 </r>
       <r>  -21.3104    1.0000 </r>
       <r>  -21.3079    1.0000 </r>
       <r>  -21.3061    1.0000 </r>
       <r>  -21.3041    1.0000 </r>
       <r>  -21.2994    1.0000 </r>
       <r>  -21.2981    1.0000 </r>
       <r>  -21.2979    1.0000 </r>
       <r>  -21.2974    1.0000 </r>
       <r>  -21.2963    1.0000 </r>
       <r>  -21.2957    1.0000 </r>
       <r>  -21.2948    1.0000 </r>
       <r>  -21.2936    1.0000 </r>
       <r>  -21.2919    1.0000 </r>
       <r>  -21.2918    1.0000 </r>
       <r>  -21.2916    1.0000 </r>
       <r>  -21.2915    1.0000 </r>
       <r>  -21.2909    1.0000 </r>
       <r>  -21.2902    1.0000 </r>
       <r>  -21.2899    1.0000 </r>
       <r>  -21.2897    1.0000 </r>
       <r>  -21.2889    1.0000 </r>
       <r>  -21.2887    1.0000 </r>
       <r>  -21.2884    1.0000 </r>
       <r>  -21.2880    1.0000 </r>
       <r>  -21.2879    1.0000 </r>
       <r>  -21.2877    1.0000 </r>
       <r>  -21.2873    1.0000 </r>
       <r>  -21.2871    1.0000 </r>
       <r>  -21.2867    1.0000 </r>
       <r>  -21.2860    1.0000 </r>
[...]
      </set>
     </set>
    </set>
   </array>
  </eigenvalues>
  <separator name="orbital magnetization" >
   <v name="MAGDIPOLOUT">      0.00000000      0.00000000      0.00000000</v>
  </separator>
  <dos>
   <i name="efermi">     -0.55478589 </i>
   <total>
    <array>
     <dimension dim="1">gridpoints</dimension>
     <dimension dim="2">spin</dimension>
     <field>energy</field>
     <field>total</field>
     <field>integrated</field>
     <set>
      <set comment="spin 1">
       <r>   -22.8550     0.0000     0.0000 </r>
       <r>   -22.7420     0.0000     0.0000 </r>
       <r>   -22.6289     0.0000     0.0000 </r>
       <r>   -22.5159     0.0000     0.0000 </r>
       <r>   -22.4028     0.0000     0.0000 </r>
       <r>   -22.2898     0.0000     0.0000 </r>
       <r>   -22.1767     0.0000     0.0000 </r>
       <r>   -22.0636     0.0000     0.0000 </r>
       <r>   -21.9506     0.0000     0.0000 </r>
       <r>   -21.8375     0.0000     0.0000 </r>
       <r>   -21.7245     0.0000     0.0000 </r>
       <r>   -21.6114     0.0000     0.0000 </r>
       <r>   -21.4984     0.0000     0.0000 </r>
       <r>   -21.3853     0.0000     0.0000 </r>
       <r>   -21.2723  1155.5725   130.6441 </r>
       <r>   -21.1592   542.7046   192.0000 </r>
       <r>   -21.0461     0.0000   192.0000 </r>
       <r>   -20.9331     0.0000   192.0000 </r>
       <r>   -20.8200     0.0000   192.0000 </r>
       <r>   -20.7070     0.0000   192.0000 </r>
       <r>   -20.5939     0.0000   192.0000 </r>
       <r>   -20.4809     0.0000   192.0000 </r>
       <r>   -20.3678     0.0000   192.0000 </r>
       <r>   -20.2548     0.0000   192.0000 </r>
       <r>   -20.1417     0.0000   192.0000 </r>
       <r>   -20.0286     0.0000   192.0000 </r>
       <r>   -19.9156     0.0000   192.0000 </r>
       <r>   -19.8025     0.0000   192.0000 </r>
       <r>   -19.6895     0.0000   192.0000 </r>
       <r>   -19.5764     0.0000   192.0000 </r>
       <r>   -19.4634     0.0000   192.0000 </r>
       <r>   -19.3503     0.0000   192.0000 </r>
       <r>   -19.2372     0.0000   192.0000 </r>
       <r>   -19.1242     0.0000   192.0000 </r>
       <r>   -19.0111     0.0000   192.0000 </r>
       <r>   -18.8981     0.0000   192.0000 </r>
       <r>   -18.7850     0.0000   192.0000 </r>
       <r>   -18.6720     0.0000   192.0000 </r>
       <r>   -18.5589     0.0000   192.0000 </r>
       <r>   -18.4459     0.0000   192.0000 </r>
       <r>   -18.3328     0.0000   192.0000 </r>
       <r>   -18.2197     0.0000   192.0000 </r>
       <r>   -18.1067     0.0000   192.0000 </r>
       <r>   -17.9936     0.0000   192.0000 </r>
       <r>   -17.8806     0.0000   192.0000 </r>
       <r>   -17.7675     0.0000   192.0000 </r>
       <r>   -17.6545     0.0000   192.0000 </r>
       <r>   -17.5414     0.0000   192.0000 </r>
       <r>   -17.4284     0.0000   192.0000 </r>
       <r>   -17.3153     0.0000   192.0000 </r>
       <r>   -17.2022     0.0000   192.0000 </r>
       <r>   -17.0892     0.0000   192.0000 </r>
       <r>   -16.9761     0.0000   192.0000 </r>
       <r>   -16.8631     0.0000   192.0000 </r>
       <r>   -16.7500     0.0000   192.0000 </r>
       <r>   -16.6370     0.0000   192.0000 </r>
       <r>   -16.5239     0.0000   192.0000 </r>
       <r>   -16.4109     0.0000   192.0000 </r>
       <r>   -16.2978     0.0000   192.0000 </r>
       <r>   -16.1847     0.0000   192.0000 </r>
       <r>   -16.0717     0.0000   192.0000 </r>
       <r>   -15.9586     0.0000   192.0000 </r>
       <r>   -15.8456     0.0000   192.0000 </r>
       <r>   -15.7325     0.0000   192.0000 </r>
       <r>   -15.6195     0.0000   192.0000 </r>
       <r>   -15.5064     0.0000   192.0000 </r>
       <r>   -15.3934     0.0000   192.0000 </r>
       <r>   -15.2803     0.0000   192.0000 </r>
       <r>   -15.1672     0.0000   192.0000 </r>
       <r>   -15.0542     0.0000   192.0000 </r>
       <r>   -14.9411     0.0000   192.0000 </r>
       <r>   -14.8281     0.0000   192.0000 </r>
       <r>   -14.7150     0.0000   192.0000 </r>
       <r>   -14.6020     0.0000   192.0000 </r>
       <r>   -14.4889     0.0000   192.0000 </r>
       <r>   -14.3759     0.0000   192.0000 </r>
       <r>   -14.2628     0.0000   192.0000 </r>
       <r>   -14.1497     0.0000   192.0000 </r>
       <r>   -14.0367     0.0000   192.0000 </r>
       <r>   -13.9236     0.0000   192.0000 </r>
       <r>   -13.8106     0.0000   192.0000 </r>
       <r>   -13.6975     0.0000   192.0000 </r>
       <r>   -13.5845     0.0000   192.0000 </r>
       <r>   -13.4714     0.0000   192.0000 </r>
       <r>   -13.3584     1.0822   192.1224 </r>
       <r>   -13.2453    18.9155   194.2609 </r>
       <r>   -13.1322    48.5859   199.7540 </r>
       <r>   -13.0192   124.6084   213.8419 </r>
       <r>   -12.9061   368.1741   255.4667 </r>
       <r>   -12.7931     4.7072   256.0000 </r>
       <r>   -12.6800     0.0000   256.0000 </r>
       <r>   -12.5670     0.0000   256.0000 </r>
       <r>   -12.4539     0.0000   256.0000 </r>
       <r>   -12.3408     0.0000   256.0000 </r>
       <r>   -12.2278     0.0000   256.0000 </r>
       <r>   -12.1147     0.0000   256.0000 </r>
       <r>   -12.0017     0.0000   256.0000 </r>
       <r>   -11.8886     0.0000   256.0000 </r>
       <r>   -11.7756     0.0000   256.0000 </r>
       <r>   -11.6625     0.0000   256.0000 </r>
       <r>   -11.5495     0.0000   256.0000 </r>
       <r>   -11.4364     0.0000   256.0000 </r>
       <r>   -11.3233     0.0000   256.0000 </r>
       <r>   -11.2103     0.0000   256.0000 </r>
       <r>   -11.0972     0.0000   256.0000 </r>
       <r>   -10.9842     0.0000   256.0000 </r>
       <r>   -10.8711     0.0000   256.0000 </r>
       <r>   -10.7581     0.0000   256.0000 </r>
       <r>   -10.6450     0.0000   256.0000 </r>
       <r>   -10.5320     0.0000   256.0000 </r>
       <r>   -10.4189     0.0000   256.0000 </r>
       <r>   -10.3058     0.0000   256.0000 </r>
       <r>   -10.1928     0.0000   256.0000 </r>
       <r>   -10.0797     0.0000   256.0000 </r>
       <r>    -9.9667     0.0000   256.0000 </r>
       <r>    -9.8536     0.0000   256.0000 </r>
       <r>    -9.7406     0.0000   256.0000 </r>
       <r>    -9.6275     0.0000   256.0000 </r>
       <r>    -9.5145     0.0000   256.0000 </r>
       <r>    -9.4014     0.0000   256.0000 </r>
       <r>    -9.2883     0.0000   256.0000 </r>
       <r>    -9.1753     0.0000   256.0000 </r>
       <r>    -9.0622     0.0000   256.0000 </r>
       <r>    -8.9492     0.0000   256.0000 </r>
       <r>    -8.8361     0.0000   256.0000 </r>
       <r>    -8.7231     0.0000   256.0000 </r>
       <r>    -8.6100     0.0000   256.0000 </r>
       <r>    -8.4970     0.0000   256.0000 </r>
       <r>    -8.3839     0.0000   256.0000 </r>
       <r>    -8.2708     0.0000   256.0000 </r>
       <r>    -8.1578     0.0000   256.0000 </r>
       <r>    -8.0447     0.0000   256.0000 </r>
       <r>    -7.9317     0.0000   256.0000 </r>
       <r>    -7.8186     0.0000   256.0000 </r>
       <r>    -7.7056     0.0000   256.0000 </r>
       <r>    -7.5925     0.0000   256.0000 </r>
       <r>    -7.4795     0.0000   256.0000 </r>
       <r>    -7.3664     0.0000   256.0000 </r>
       <r>    -7.2533     0.0000   256.0000 </r>
       <r>    -7.1403     0.0000   256.0000 </r>
       <r>    -7.0272     0.0000   256.0000 </r>
       <r>    -6.9142     0.0000   256.0000 </r>
       <r>    -6.8011     0.0000   256.0000 </r>
       <r>    -6.6881     0.0000   256.0000 </r>
       <r>    -6.5750     0.0000   256.0000 </r>
       <r>    -6.4619     0.0000   256.0000 </r>
       <r>    -6.3489     0.0000   256.0000 </r>
       <r>    -6.2358     0.0000   256.0000 </r>
       <r>    -6.1228     0.0000   256.0000 </r>
       <r>    -6.0097     0.0000   256.0000 </r>
       <r>    -5.8967     0.0000   256.0000 </r>
       <r>    -5.7836     0.0000   256.0000 </r>
       <r>    -5.6706     0.0000   256.0000 </r>
       <r>    -5.5575     0.0000   256.0000 </r>
       <r>    -5.4444     0.0000   256.0000 </r>
       <r>    -5.3314     0.0000   256.0000 </r>
       <r>    -5.2183     0.0000   256.0000 </r>
       <r>    -5.1053     0.0000   256.0000 </r>
       <r>    -4.9922     0.0000   256.0000 </r>
       <r>    -4.8792     0.0000   256.0000 </r>
       <r>    -4.7661     0.0000   256.0000 </r>
       <r>    -4.6531     0.0000   256.0000 </r>
       <r>    -4.5400     0.0000   256.0000 </r>
       <r>    -4.4269     0.0000   256.0000 </r>
       <r>    -4.3139     0.0000   256.0000 </r>
       <r>    -4.2008     0.0000   256.0000 </r>
       <r>    -4.0878     0.0000   256.0000 </r>
       <r>    -3.9747     0.0000   256.0000 </r>
       <r>    -3.8617     0.0000   256.0000 </r>
       <r>    -3.7486     0.0000   256.0000 </r>
       <r>    -3.6356     0.0000   256.0000 </r>
       <r>    -3.5225     0.0000   256.0000 </r>
       <r>    -3.4094     0.0000   256.0000 </r>
       <r>    -3.2964     0.0000   256.0000 </r>
       <r>    -3.1833     0.0000   256.0000 </r>
       <r>    -3.0703     0.0000   256.0000 </r>
       <r>    -2.9572     0.0000   256.0000 </r>
       <r>    -2.8442     0.0000   256.0000 </r>
       <r>    -2.7311     0.1220   256.0138 </r>
       <r>    -2.6181     8.7232   257.0000 </r>
       <r>    -2.5050    25.5255   259.8858 </r>
       <r>    -2.3919    83.4734   269.3229 </r>
       <r>    -2.2789    82.6726   278.6696 </r>
       <r>    -2.1658   154.3041   296.1154 </r>
       <r>    -2.0528    71.9522   304.2500 </r>
       <r>    -1.9397    56.8981   310.6827 </r>
       <r>    -1.8267    62.9255   317.7971 </r>
       <r>    -1.7136    70.3451   325.7500 </r>
       <r>    -1.6006     0.0000   325.7500 </r>
       <r>    -1.4875    74.0458   334.1213 </r>
       <r>    -1.3744   194.3245   356.0908 </r>
       <r>    -1.2614    23.8294   358.7848 </r>
       <r>    -1.1483   255.0275   387.6172 </r>
       <r>    -1.0353   135.6921   402.9580 </r>
       <r>    -0.9222   259.9998   432.3528 </r>
       <r>    -0.8092    61.7281   439.3325 </r>
       <r>    -0.6961    70.0881   447.2563 </r>
       <r>    -0.5830     6.5778   448.0000 </r>
       <r>    -0.4700     0.0000   448.0000 </r>
       <r>    -0.3569     0.0000   448.0000 </r>
       <r>    -0.2439     0.0000   448.0000 </r>
       <r>    -0.1308     0.0000   448.0000 </r>
       <r>    -0.0178     0.0000   448.0000 </r>
       <r>     0.0953     0.0000   448.0000 </r>
       <r>     0.2083     0.0000   448.0000 </r>
       <r>     0.3214     0.0000   448.0000 </r>
       <r>     0.4345     0.0000   448.0000 </r>
       <r>     0.5475     0.0000   448.0000 </r>
       <r>     0.6606     0.0000   448.0000 </r>
       <r>     0.7736     0.0000   448.0000 </r>
       <r>     0.8867     0.0000   448.0000 </r>
       <r>     0.9997     0.0000   448.0000 </r>
       <r>     1.1128     0.0000   448.0000 </r>
       <r>     1.2258     0.0000   448.0000 </r>
       <r>     1.3389     0.0000   448.0000 </r>
       <r>     1.4520     0.0000   448.0000 </r>
       <r>     1.5650     0.0000   448.0000 </r>
       <r>     1.6781     0.0000   448.0000 </r>
       <r>     1.7911     0.0000   448.0000 </r>
       <r>     1.9042     0.0000   448.0000 </r>
       <r>     2.0172     0.0000   448.0000 </r>
       <r>     2.1303     0.0000   448.0000 </r>
       <r>     2.2433     0.0000   448.0000 </r>
       <r>     2.3564     0.0000   448.0000 </r>
       <r>     2.4695     0.0000   448.0000 </r>
       <r>     2.5825     0.0000   448.0000 </r>
       <r>     2.6956     0.0000   448.0000 </r>
       <r>     2.8086     0.0000   448.0000 </r>
       <r>     2.9217     0.0000   448.0000 </r>
       <r>     3.0347     0.0000   448.0000 </r>
       <r>     3.1478     0.0000   448.0000 </r>
       <r>     3.2608     0.0000   448.0000 </r>
       <r>     3.3739     0.0000   448.0000 </r>
       <r>     3.4870     0.0000   448.0000 </r>
       <r>     3.6000     0.0000   448.0000 </r>
       <r>     3.7131     0.0000   448.0000 </r>
       <r>     3.8261     0.0000   448.0000 </r>
       <r>     3.9392     0.0000   448.0000 </r>
       <r>     4.0522     0.0000   448.0000 </r>
       <r>     4.1653     0.0000   448.0000 </r>
       <r>     4.2783     0.0000   448.0000 </r>
       <r>     4.3914     2.2110   448.2500 </r>
       <r>     4.5045     0.0000   448.2500 </r>
       <r>     4.6175     0.0000   448.2500 </r>
       <r>     4.7306     0.0000   448.2500 </r>
       <r>     4.8436     0.0000   448.2500 </r>
       <r>     4.9567     0.0000   448.2500 </r>
       <r>     5.0697    13.2611   449.7492 </r>
       <r>     5.1828     0.0043   449.7500 </r>
       <r>     5.2958     0.0000   449.7500 </r>
       <r>     5.4089     0.0000   449.7500 </r>
       <r>     5.5220     3.2786   450.1207 </r>
       <r>     5.6350    23.2570   452.7500 </r>
       <r>     5.7481     0.0000   452.7500 </r>
       <r>     5.8611    17.2187   454.6967 </r>
       <r>     5.9742     0.4717   454.7500 </r>
       <r>     6.0872     0.0000   454.7500 </r>
       <r>     6.2003     0.0000   454.7500 </r>
       <r>     6.3134     0.0023   454.7503 </r>
       <r>     6.4264    14.1175   456.3463 </r>
       <r>     6.5395     7.9924   457.2500 </r>
       <r>     6.6525    43.3616   462.1523 </r>
       <r>     6.7656    62.7316   469.2445 </r>
       <r>     6.8786    59.3054   475.9497 </r>
       <r>     6.9917    12.6854   477.3840 </r>
       <r>     7.1047     1.0261   477.5000 </r>
       <r>     7.2178     5.1873   478.0865 </r>
       <r>     7.3309     1.8433   478.2949 </r>
       <r>     7.4439    82.4970   487.6216 </r>
       <r>     7.5570   166.8407   506.4841 </r>
       <r>     7.6700     2.3788   506.7530 </r>
       <r>     7.7831    26.5087   509.7500 </r>
       <r>     7.8961     0.2987   509.7838 </r>
       <r>     8.0092    52.7725   515.7500 </r>
       <r>     8.1222     0.0126   515.7514 </r>
       <r>     8.2353    14.5115   517.3920 </r>
       <r>     8.3484    91.6106   527.7491 </r>
       <r>     8.4614     0.0052   527.7500 </r>
       <r>     8.5745   149.2759   544.6265 </r>
       <r>     8.6875     9.9363   545.7500 </r>
       <r>     8.8006     0.0000   545.7500 </r>
       <r>     8.9136    83.9198   555.2376 </r>
       <r>     9.0267   122.6354   569.1023 </r>
       <r>     9.1397     3.5181   569.5000 </r>
       <r>     9.2528    26.5513   572.5018 </r>
       <r>     9.3659    17.6747   574.5000 </r>
       <r>     9.4789     1.5979   574.6806 </r>
       <r>     9.5920    11.6699   576.0000 </r>
       <r>     9.7050     0.0000   576.0000 </r>
       <r>     9.8181     0.0000   576.0000 </r>
       <r>     9.9311     0.0000   576.0000 </r>
       <r>    10.0442     0.0000   576.0000 </r>
       <r>    10.1572     0.0000   576.0000 </r>
       <r>    10.2703     0.0000   576.0000 </r>
       <r>    10.3834     0.0000   576.0000 </r>
       <r>    10.4964     0.0000   576.0000 </r>
       <r>    10.6095     0.0000   576.0000 </r>
       <r>    10.7225     0.0000   576.0000 </r>
       <r>    10.8356     0.0000   576.0000 </r>
       <r>    10.9486     0.0000   576.0000 </r>
       <r>    11.0617     0.0000   576.0000 </r>
      </set>
     </set>
    </array>
   </total>
  </dos>
 </calculation>
 <structure name="finalpos" >
  <crystal>
   <varray name="basis" >
    <v>      11.20400236       0.00000000       0.00000000 </v>
    <v>       0.00000000      11.20400236       0.00000000 </v>
    <v>       0.00000000       0.00000000      11.20400236 </v>
   </varray>
   <i name="volume">   1406.43470641 </i>
   <varray name="rec_basis" >
    <v>       0.08925382       0.00000000       0.00000000 </v>
    <v>       0.00000000       0.08925382       0.00000000 </v>
    <v>       0.00000000       0.00000000       0.08925382 </v>
   </varray>
  </crystal>
  <varray name="positions" >
   <v>       0.00000000       0.00000000       0.00000000 </v>
   <v>       0.25000000       0.25000000       0.00000000 </v>
   <v>       0.25000000       0.00000000       0.25000000 </v>
   <v>       0.00000000       0.25000000       0.25000000 </v>
   <v>       0.00000000       0.00000000       0.50000000 </v>
   <v>       0.25000000       0.25000000       0.50000000 </v>
   <v>       0.25000000       0.00000000       0.75000000 </v>
   <v>       0.00000000       0.25000000       0.75000000 </v>
   <v>       0.00000000       0.50000000       0.00000000 </v>
   <v>       0.25000000       0.75000000       0.00000000 </v>
   <v>       0.25000000       0.50000000       0.25000000 </v>
   <v>       0.00000000       0.75000000       0.25000000 </v>
   <v>       0.00000000       0.50000000       0.50000000 </v>
   <v>       0.25000000       0.75000000       0.50000000 </v>
   <v>       0.25000000       0.50000000       0.75000000 </v>
   <v>       0.00000000       0.75000000       0.75000000 </v>
   <v>       0.50000000       0.00000000       0.00000000 </v>
   <v>       0.75000000       0.25000000       0.00000000 </v>
   <v>       0.75000000       0.00000000       0.25000000 </v>
   <v>       0.50000000       0.25000000       0.25000000 </v>
   <v>       0.50000000       0.00000000       0.50000000 </v>
   <v>       0.75000000       0.25000000       0.50000000 </v>
   <v>       0.75000000       0.00000000       0.75000000 </v>
   <v>       0.50000000       0.25000000       0.75000000 </v>
   <v>       0.50000000       0.50000000       0.00000000 </v>
   <v>       0.75000000       0.75000000       0.00000000 </v>
   <v>       0.75000000       0.50000000       0.25000000 </v>
   <v>       0.50000000       0.75000000       0.25000000 </v>
   <v>       0.50000000       0.50000000       0.50000000 </v>
   <v>       0.75000000       0.75000000       0.50000000 </v>
   <v>       0.75000000       0.50000000       0.75000000 </v>
   <v>       0.50000000       0.75000000       0.75000000 </v>
   <v>       0.25267761       0.25000000       0.25000000 </v>
   <v>       0.00000000       0.00000000       0.25267761 </v>
   <v>       0.00000000       0.25000000       0.00000000 </v>
   <v>       0.25000000       0.00000000       0.00000000 </v>
   <v>       0.25000000       0.25000000       0.75000000 </v>
   <v>       0.00000000       0.00000000       0.75000000 </v>
   <v>       0.00000000       0.25000000       0.50000000 </v>
   <v>       0.25000000       0.00000000       0.50000000 </v>
   <v>       0.25000000       0.75000000       0.25000000 </v>
   <v>       0.00000000       0.50000000       0.25000000 </v>
   <v>       0.00000000       0.75000000       0.00000000 </v>
   <v>       0.25000000       0.50000000       0.00000000 </v>
   <v>       0.25000000       0.75000000       0.75000000 </v>
   <v>       0.00000000       0.50000000       0.75000000 </v>
   <v>       0.00000000       0.75000000       0.50000000 </v>
   <v>       0.25000000       0.50000000       0.50000000 </v>
   <v>       0.75000000       0.25000000       0.25000000 </v>
   <v>       0.50000000       0.00000000       0.25000000 </v>
   <v>       0.50000000       0.25000000       0.00000000 </v>
   <v>       0.75000000       0.00000000       0.00000000 </v>
   <v>       0.75000000       0.25000000       0.75000000 </v>
   <v>       0.50000000       0.00000000       0.75000000 </v>
   <v>       0.50000000       0.25000000       0.50000000 </v>
   <v>       0.75000000       0.00000000       0.50000000 </v>
   <v>       0.75000000       0.75000000       0.25000000 </v>
   <v>       0.50000000       0.50000000       0.25000000 </v>
   <v>       0.50000000       0.75000000       0.00000000 </v>
   <v>       0.75000000       0.50000000       0.00000000 </v>
   <v>       0.75000000       0.75000000       0.75000000 </v>
   <v>       0.50000000       0.50000000       0.75000000 </v>
   <v>       0.50000000       0.75000000       0.50000000 </v>
   <v>       0.75000000       0.50000000       0.50000000 </v>
  </varray>
 </structure>
</modeling>
