  64  64   0   0
  0.2197554E+02  0.1120400E-08  0.1120400E-08  0.1120400E-08  0.5000000E-15
  1.000000000000000E-004
  CAR 
 unknown system                          
     11.04536362    -22.84909430  301     -0.56348822      1.00000000
    -22.849  0.0000E+00  0.0000E+00
    -22.736  0.0000E+00  0.0000E+00
    -22.623  0.0000E+00  0.0000E+00
    -22.510  0.0000E+00  0.0000E+00
    -22.397  0.0000E+00  0.0000E+00
    -22.284  0.0000E+00  0.0000E+00
    -22.171  0.0000E+00  0.0000E+00
    -22.058  0.0000E+00  0.0000E+00
    -21.945  0.0000E+00  0.0000E+00
    -21.832  0.0000E+00  0.0000E+00
    -21.719  0.0000E+00  0.0000E+00
    -21.606  0.0000E+00  0.0000E+00
    -21.493  0.0000E+00  0.0000E+00
    -21.380  0.6844E-05  0.7732E-06
    -21.267  0.1333E+04  0.1506E+03
    -21.154  0.3664E+03  0.1920E+03
    -21.041  0.0000E+00  0.1920E+03
    -20.928  0.0000E+00  0.1920E+03
    -20.815  0.0000E+00  0.1920E+03
    -20.702  0.0000E+00  0.1920E+03
    -20.589  0.0000E+00  0.1920E+03
    -20.476  0.0000E+00  0.1920E+03
    -20.364  0.0000E+00  0.1920E+03
    -20.251  0.0000E+00  0.1920E+03
    -20.138  0.0000E+00  0.1920E+03
    -20.025  0.0000E+00  0.1920E+03
    -19.912  0.0000E+00  0.1920E+03
    -19.799  0.0000E+00  0.1920E+03
    -19.686  0.0000E+00  0.1920E+03
    -19.573  0.0000E+00  0.1920E+03
    -19.460  0.0000E+00  0.1920E+03
    -19.347  0.0000E+00  0.1920E+03
    -19.234  0.0000E+00  0.1920E+03
    -19.121  0.0000E+00  0.1920E+03
    -19.008  0.0000E+00  0.1920E+03
    -18.895  0.0000E+00  0.1920E+03
    -18.782  0.0000E+00  0.1920E+03
    -18.669  0.0000E+00  0.1920E+03
    -18.556  0.0000E+00  0.1920E+03
    -18.443  0.0000E+00  0.1920E+03
    -18.330  0.0000E+00  0.1920E+03
    -18.217  0.0000E+00  0.1920E+03
    -18.104  0.0000E+00  0.1920E+03
    -17.991  0.0000E+00  0.1920E+03
    -17.878  0.0000E+00  0.1920E+03
    -17.765  0.0000E+00  0.1920E+03
    -17.652  0.0000E+00  0.1920E+03
    -17.539  0.0000E+00  0.1920E+03
    -17.426  0.0000E+00  0.1920E+03
    -17.313  0.0000E+00  0.1920E+03
    -17.200  0.0000E+00  0.1920E+03
    -17.087  0.0000E+00  0.1920E+03
    -16.974  0.0000E+00  0.1920E+03
    -16.861  0.0000E+00  0.1920E+03
    -16.748  0.0000E+00  0.1920E+03
    -16.635  0.0000E+00  0.1920E+03
    -16.522  0.0000E+00  0.1920E+03
    -16.409  0.0000E+00  0.1920E+03
    -16.296  0.0000E+00  0.1920E+03
    -16.183  0.0000E+00  0.1920E+03
    -16.070  0.0000E+00  0.1920E+03
    -15.957  0.0000E+00  0.1920E+03
    -15.844  0.0000E+00  0.1920E+03
    -15.731  0.0000E+00  0.1920E+03
    -15.618  0.0000E+00  0.1920E+03
    -15.505  0.0000E+00  0.1920E+03
    -15.392  0.0000E+00  0.1920E+03
    -15.279  0.0000E+00  0.1920E+03
    -15.166  0.0000E+00  0.1920E+03
    -15.053  0.0000E+00  0.1920E+03
    -14.940  0.0000E+00  0.1920E+03
    -14.827  0.0000E+00  0.1920E+03
    -14.714  0.0000E+00  0.1920E+03
    -14.601  0.0000E+00  0.1920E+03
    -14.488  0.0000E+00  0.1920E+03
    -14.375  0.0000E+00  0.1920E+03
    -14.262  0.0000E+00  0.1920E+03
    -14.150  0.0000E+00  0.1920E+03
    -14.037  0.0000E+00  0.1920E+03
    -13.924  0.0000E+00  0.1920E+03
    -13.811  0.0000E+00  0.1920E+03
    -13.698  0.0000E+00  0.1920E+03
    -13.585  0.0000E+00  0.1920E+03
    -13.472  0.9827E-15  0.1920E+03
    -13.359  0.1065E+01  0.1921E+03
    -13.246  0.1878E+02  0.1942E+03
    -13.133  0.4860E+02  0.1997E+03
    -13.020  0.1242E+03  0.2138E+03
    -12.907  0.3685E+03  0.2554E+03
    -12.794  0.5308E+01  0.2560E+03
    -12.681  0.0000E+00  0.2560E+03
    -12.568  0.0000E+00  0.2560E+03
    -12.455  0.0000E+00  0.2560E+03
    -12.342  0.0000E+00  0.2560E+03
    -12.229  0.0000E+00  0.2560E+03
    -12.116  0.0000E+00  0.2560E+03
    -12.003  0.0000E+00  0.2560E+03
    -11.890  0.0000E+00  0.2560E+03
    -11.777  0.0000E+00  0.2560E+03
    -11.664  0.0000E+00  0.2560E+03
    -11.551  0.0000E+00  0.2560E+03
    -11.438  0.0000E+00  0.2560E+03
    -11.325  0.0000E+00  0.2560E+03
    -11.212  0.0000E+00  0.2560E+03
    -11.099  0.0000E+00  0.2560E+03
    -10.986  0.0000E+00  0.2560E+03
    -10.873  0.0000E+00  0.2560E+03
    -10.760  0.0000E+00  0.2560E+03
    -10.647  0.0000E+00  0.2560E+03
    -10.534  0.0000E+00  0.2560E+03
    -10.421  0.0000E+00  0.2560E+03
    -10.308  0.0000E+00  0.2560E+03
    -10.195  0.0000E+00  0.2560E+03
    -10.082  0.0000E+00  0.2560E+03
     -9.969  0.0000E+00  0.2560E+03
     -9.856  0.0000E+00  0.2560E+03
     -9.743  0.0000E+00  0.2560E+03
     -9.630  0.0000E+00  0.2560E+03
     -9.517  0.0000E+00  0.2560E+03
     -9.404  0.0000E+00  0.2560E+03
     -9.291  0.0000E+00  0.2560E+03
     -9.178  0.0000E+00  0.2560E+03
     -9.065  0.0000E+00  0.2560E+03
     -8.952  0.0000E+00  0.2560E+03
     -8.839  0.0000E+00  0.2560E+03
     -8.726  0.0000E+00  0.2560E+03
     -8.613  0.0000E+00  0.2560E+03
     -8.500  0.0000E+00  0.2560E+03
     -8.387  0.0000E+00  0.2560E+03
     -8.274  0.0000E+00  0.2560E+03
     -8.161  0.0000E+00  0.2560E+03
     -8.049  0.0000E+00  0.2560E+03
     -7.936  0.0000E+00  0.2560E+03
     -7.823  0.0000E+00  0.2560E+03
     -7.710  0.0000E+00  0.2560E+03
     -7.597  0.0000E+00  0.2560E+03
     -7.484  0.0000E+00  0.2560E+03
     -7.371  0.0000E+00  0.2560E+03
     -7.258  0.0000E+00  0.2560E+03
     -7.145  0.0000E+00  0.2560E+03
     -7.032  0.0000E+00  0.2560E+03
     -6.919  0.0000E+00  0.2560E+03
     -6.806  0.0000E+00  0.2560E+03
     -6.693  0.0000E+00  0.2560E+03
     -6.580  0.0000E+00  0.2560E+03
     -6.467  0.0000E+00  0.2560E+03
     -6.354  0.0000E+00  0.2560E+03
     -6.241  0.0000E+00  0.2560E+03
     -6.128  0.0000E+00  0.2560E+03
     -6.015  0.0000E+00  0.2560E+03
     -5.902  0.0000E+00  0.2560E+03
     -5.789  0.0000E+00  0.2560E+03
     -5.676  0.0000E+00  0.2560E+03
     -5.563  0.0000E+00  0.2560E+03
     -5.450  0.0000E+00  0.2560E+03
     -5.337  0.0000E+00  0.2560E+03
     -5.224  0.0000E+00  0.2560E+03
     -5.111  0.0000E+00  0.2560E+03
     -4.998  0.0000E+00  0.2560E+03
     -4.885  0.0000E+00  0.2560E+03
     -4.772  0.0000E+00  0.2560E+03
     -4.659  0.0000E+00  0.2560E+03
     -4.546  0.0000E+00  0.2560E+03
     -4.433  0.0000E+00  0.2560E+03
     -4.320  0.0000E+00  0.2560E+03
     -4.207  0.0000E+00  0.2560E+03
     -4.094  0.0000E+00  0.2560E+03
     -3.981  0.0000E+00  0.2560E+03
     -3.868  0.0000E+00  0.2560E+03
     -3.755  0.0000E+00  0.2560E+03
     -3.642  0.0000E+00  0.2560E+03
     -3.529  0.0000E+00  0.2560E+03
     -3.416  0.0000E+00  0.2560E+03
     -3.303  0.0000E+00  0.2560E+03
     -3.190  0.0000E+00  0.2560E+03
     -3.077  0.0000E+00  0.2560E+03
     -2.964  0.0000E+00  0.2560E+03
     -2.851  0.0000E+00  0.2560E+03
     -2.738  0.2913E-01  0.2560E+03
     -2.625  0.8822E+01  0.2570E+03
     -2.512  0.1512E+02  0.2587E+03
     -2.399  0.8837E+02  0.2687E+03
     -2.286  0.7944E+02  0.2777E+03
     -2.173  0.1585E+03  0.2956E+03
     -2.060  0.7676E+02  0.3043E+03
     -1.948  0.5436E+02  0.3104E+03
     -1.835  0.5481E+02  0.3166E+03
     -1.722  0.8113E+02  0.3257E+03
     -1.609  0.1108E-10  0.3258E+03
     -1.496  0.4776E+02  0.3311E+03
     -1.383  0.2120E+03  0.3551E+03
     -1.270  0.3191E+02  0.3587E+03
     -1.157  0.2376E+03  0.3855E+03
     -1.044  0.1498E+03  0.4025E+03
     -0.931  0.2440E+03  0.4300E+03
     -0.818  0.7425E+02  0.4384E+03
     -0.705  0.7785E+02  0.4472E+03
     -0.592  0.6837E+01  0.4480E+03
     -0.479  0.0000E+00  0.4480E+03
     -0.366  0.0000E+00  0.4480E+03
     -0.253  0.0000E+00  0.4480E+03
     -0.140  0.0000E+00  0.4480E+03
     -0.027  0.0000E+00  0.4480E+03
      0.086  0.0000E+00  0.4480E+03
      0.199  0.0000E+00  0.4480E+03
      0.312  0.0000E+00  0.4480E+03
      0.425  0.0000E+00  0.4480E+03
      0.538  0.0000E+00  0.4480E+03
      0.651  0.0000E+00  0.4480E+03
      0.764  0.0000E+00  0.4480E+03
      0.877  0.0000E+00  0.4480E+03
      0.990  0.0000E+00  0.4480E+03
      1.103  0.0000E+00  0.4480E+03
      1.216  0.0000E+00  0.4480E+03
      1.329  0.0000E+00  0.4480E+03
      1.442  0.0000E+00  0.4480E+03
      1.555  0.0000E+00  0.4480E+03
      1.668  0.0000E+00  0.4480E+03
      1.781  0.0000E+00  0.4480E+03
      1.894  0.0000E+00  0.4480E+03
      2.007  0.0000E+00  0.4480E+03
      2.120  0.0000E+00  0.4480E+03
      2.233  0.0000E+00  0.4480E+03
      2.346  0.0000E+00  0.4480E+03
      2.459  0.0000E+00  0.4480E+03
      2.572  0.0000E+00  0.4480E+03
      2.685  0.0000E+00  0.4480E+03
      2.798  0.0000E+00  0.4480E+03
      2.911  0.0000E+00  0.4480E+03
      3.024  0.0000E+00  0.4480E+03
      3.137  0.0000E+00  0.4480E+03
      3.250  0.0000E+00  0.4480E+03
      3.363  0.0000E+00  0.4480E+03
      3.476  0.0000E+00  0.4480E+03
      3.589  0.0000E+00  0.4480E+03
      3.702  0.0000E+00  0.4480E+03
      3.815  0.0000E+00  0.4480E+03
      3.928  0.0000E+00  0.4480E+03
      4.041  0.0000E+00  0.4480E+03
      4.153  0.0000E+00  0.4480E+03
      4.266  0.2035E-06  0.4480E+03
      4.379  0.2207E+01  0.4482E+03
      4.492  0.6124E-02  0.4482E+03
      4.605  0.0000E+00  0.4482E+03
      4.718  0.0000E+00  0.4482E+03
      4.831  0.0000E+00  0.4482E+03
      4.944  0.4169E-06  0.4483E+03
      5.057  0.1318E+02  0.4497E+03
      5.170  0.9925E-01  0.4498E+03
      5.283  0.0000E+00  0.4498E+03
      5.396  0.0000E+00  0.4498E+03
      5.509  0.5788E+00  0.4498E+03
      5.622  0.2597E+02  0.4527E+03
      5.735  0.5898E-09  0.4528E+03
      5.848  0.1517E+02  0.4545E+03
      5.961  0.2535E+01  0.4548E+03
      6.074  0.0000E+00  0.4548E+03
      6.187  0.0000E+00  0.4548E+03
      6.300  0.5771E-04  0.4548E+03
      6.413  0.1336E+02  0.4563E+03
      6.526  0.8771E+01  0.4572E+03
      6.639  0.2687E+02  0.4603E+03
      6.752  0.7841E+02  0.4691E+03
      6.865  0.5681E+02  0.4756E+03
      6.978  0.1287E+02  0.4770E+03
      7.091  0.4274E+01  0.4775E+03
      7.204  0.2809E+01  0.4778E+03
      7.317  0.3854E+01  0.4783E+03
      7.430  0.7860E+02  0.4871E+03
      7.543  0.1614E+03  0.5054E+03
      7.656  0.1226E+02  0.5068E+03
      7.769  0.2655E+02  0.5097E+03
      7.882  0.1314E-01  0.5098E+03
      7.995  0.5309E+02  0.5157E+03
      8.108  0.3244E-03  0.5158E+03
      8.221  0.1336E+02  0.5173E+03
      8.334  0.9263E+02  0.5277E+03
      8.447  0.2130E+00  0.5278E+03
      8.560  0.1263E+03  0.5420E+03
      8.673  0.3297E+02  0.5457E+03
      8.786  0.6964E-08  0.5458E+03
      8.899  0.6453E+02  0.5530E+03
      9.012  0.1296E+03  0.5677E+03
      9.125  0.1613E+02  0.5695E+03
      9.238  0.1163E+02  0.5708E+03
      9.351  0.3262E+02  0.5745E+03
      9.464  0.2712E+00  0.5745E+03
      9.577  0.1301E+02  0.5760E+03
      9.690  0.0000E+00  0.5760E+03
      9.803  0.0000E+00  0.5760E+03
      9.916  0.0000E+00  0.5760E+03
     10.029  0.0000E+00  0.5760E+03
     10.142  0.0000E+00  0.5760E+03
     10.254  0.0000E+00  0.5760E+03
     10.367  0.0000E+00  0.5760E+03
     10.480  0.0000E+00  0.5760E+03
     10.593  0.0000E+00  0.5760E+03
     10.706  0.0000E+00  0.5760E+03
     10.819  0.0000E+00  0.5760E+03
     10.932  0.0000E+00  0.5760E+03
     11.045  0.0000E+00  0.5760E+03
