       N       E                     dE             d eps       ncg     rms          rms(c)
DAV:   1     0.438681598605E+04    0.43868E+04   -0.17132E+05  3648   0.125E+03
DAV:   2     0.364357107631E+03   -0.40225E+04   -0.38239E+04  3872   0.366E+02
DAV:   3    -0.205079732617E+03   -0.56944E+03   -0.56501E+03  4160   0.155E+02
DAV:   4    -0.228136326902E+03   -0.23057E+02   -0.22941E+02  4160   0.334E+01
DAV:   5    -0.229002463533E+03   -0.86614E+00   -0.86458E+00  4416   0.631E+00    0.106E+01
DAV:   6    -0.224138865311E+03    0.48636E+01   -0.94613E+00  4256   0.535E+00    0.775E+00
DAV:   7    -0.223777280057E+03    0.36159E+00   -0.20817E+00  4672   0.234E+00    0.533E+00
DAV:   8    -0.223902829233E+03   -0.12555E+00   -0.26984E-01  4064   0.125E+00    0.146E+00
DAV:   9    -0.223896929046E+03    0.59002E-02   -0.11283E-02  4256   0.260E-01    0.639E-01
DAV:  10    -0.223901029829E+03   -0.41008E-02   -0.19189E-02  4128   0.236E-01    0.293E-01
DAV:  11    -0.223900285072E+03    0.74476E-03   -0.16941E-03  4192   0.866E-02    0.946E-02
DAV:  12    -0.223900250059E+03    0.35013E-04   -0.12968E-04  4704   0.240E-02    0.308E-02
DAV:  13    -0.223900239214E+03    0.10845E-04   -0.46527E-05  3936   0.114E-02    0.383E-03
DAV:  14    -0.223900241365E+03   -0.21511E-05   -0.34637E-06  4384   0.436E-03    0.814E-03
DAV:  15    -0.223900242241E+03   -0.87560E-06   -0.36391E-07  4448   0.202E-03    0.493E-03
DAV:  16    -0.223900242919E+03   -0.67816E-06   -0.23919E-07  4256   0.112E-03    0.141E-03
DAV:  17    -0.223900243029E+03   -0.11041E-06   -0.11326E-08  2848   0.704E-04    0.370E-04
DAV:  18    -0.223900243171E+03   -0.14162E-06   -0.22576E-08  3392   0.517E-04    0.470E-04
DAV:  19    -0.223900243139E+03    0.31738E-07   -0.10172E-08  2496   0.343E-04    0.302E-04
DAV:  20    -0.223900243110E+03    0.29009E-07   -0.22157E-09  2656   0.477E-04    0.283E-04
DAV:  21    -0.223900243060E+03    0.49862E-07   -0.31008E-09  2304   0.159E-04    0.157E-04
DAV:  22    -0.223900243065E+03   -0.43583E-08   -0.11151E-09  2272   0.152E-04
   1 F= -.22390024E+03 E0= -.22390024E+03  d E =-.300714E-13
