 vasp.6.3.2 27Jun22 (build Oct 14 2022 12:13:54) complex                        
  
 executed on             LinuxIFC date 2025.08.28  22:11:17
 running on   32 total cores
 distrk:  each k-point on   32 cores,    1 groups
 distr:  one band on NCORE=   1 cores,   32 groups


--------------------------------------------------------------------------------------------------------


 INCAR:
   ENCUT = 341.213600
   SIGMA = 0.020000
   EDIFF = 1.00e-08
   GGA = PS
   PREC = Accurate
   IALGO = 38
   IBRION = -1
   ISMEAR = 0
   NELMIN = 5
   ADDGRID = .TRUE.
   LCHARG = .FALSE.
   LWAVE = .FALSE.
   LREAL = .FALSE.

 POTCAR:    PAW_PBE Na_pv 19Sep2006               
 POTCAR:    PAW_PBE Cl 06Sep2000                  
 -----------------------------------------------------------------------------
|                                                                             |
|           W    W    AA    RRRRR   N    N  II  N    N   GGGG   !!!           |
|           W    W   A  A   R    R  NN   N  II  NN   N  G    G  !!!           |
|           W    W  A    A  R    R  N N  N  II  N N  N  G       !!!           |
|           W WW W  AAAAAA  RRRRR   N  N N  II  N  N N  G  GGG   !            |
|           WW  WW  A    A  R   R   N   NN  II  N   NN  G    G                |
|           W    W  A    A  R    R  N    N  II  N    N   GGGG   !!!           |
|                                                                             |
|     For optimal performance we recommend to set                             |
|       NCORE = 2 up to number-of-cores-per-socket                            |
|     NCORE specifies how many cores store one orbital (NPAR=cpu/NCORE).      |
|     This setting can greatly improve the performance of VASP for DFT.       |
|     The default, NCORE=1 might be grossly inefficient on modern             |
|     multi-core architectures or massively parallel machines. Do your        |
|     own testing! More info at https://www.vasp.at/wiki/index.php/NCORE      |
|     Unfortunately you need to use the default for GW and RPA                |
|     calculations (for HF NCORE is supported but not extensively tested      |
|     yet).                                                                   |
|                                                                             |
 -----------------------------------------------------------------------------

 POTCAR:    PAW_PBE Na_pv 19Sep2006               
   SHA256 =  6a2f546d9e11350984debacf3dc457d8cffc0868e817d445faca461816a32b94 Na_pv/POTCAR          
   COPYR  = (c) Copyright 19Sep2006 Georg Kresse                                                    
   COPYR  = This file is part of the software VASP. Any use, copying, and all other rights are regul
   COPYR  = If you do not have a valid VASP license, you may not use, copy or distribute this file. 
   VRHFIN =Na: p6s1                                                                                 
   LEXCH  = PE                                                                                      
   EATOM  =   766.0439 eV,   56.3026 Ry                                                             
                                                                                                    
   TITEL  = PAW_PBE Na_pv 19Sep2006                                                                 
   LULTRA =        F    use ultrasoft PP ?                                                          
   IUNSCR =        1    unscreen: 0-lin 1-nonlin 2-no                                               
   RPACOR =    1.800    partial core radius                                                         
   POMASS =   22.990; ZVAL   =    7.000    mass and valenz                                          
   RCORE  =    2.200    outmost cutoff radius                                                       
   RWIGS  =    2.200; RWIGS  =    1.164    wigner-seitz radius (au A)                               
   ENMAX  =  259.561; ENMIN  =  194.671 eV                                                          
   ICORE  =        2    local potential                                                             
   LCOR   =        T    correct aug charges                                                         
   LPAW   =        T    paw PP                                                                      
   EAUG   =  368.056                                                                                
   DEXC   =    0.000                                                                                
   RMAX   =    2.245    core radius for proj-oper                                                   
   RAUG   =    1.300    factor for augmentation sphere                                              
   RDEP   =    2.259    radius for radial grids                                                     
   RDEPT  =    1.738    core radius for aug-charge                                                  
                                                                                                    
   Atomic configuration                                                                             
    5 entries                                                                                       
     n  l   j            E        occ.                                                              
     1  0  0.50     -1033.6933   2.0000                                                             
     2  0  0.50       -56.7526   2.0000                                                             
     2  1  1.50       -28.6721   6.0000                                                             
     3  0  0.50        -2.7440   1.0000                                                             
     3  2  1.50        -1.3606   0.0000                                                             
   Description                                                                                      
     l       E           TYP  RCUT    TYP  RCUT                                                     
     1    -28.6720912     23  2.000                                                                 
     1      6.8029130     23  2.000                                                                 
     0     -2.7439560     23  2.200                                                                 
     0     34.0145650     23  2.200                                                                 
     2     -1.3605826     23  2.200                                                                 
  local pseudopotential read in
  partial core-charges read in
  partial kinetic energy density read in
  atomic valenz-charges read in
  non local Contribution for L=           1  read in
    real space projection operators read in
  non local Contribution for L=           1  read in
    real space projection operators read in
  non local Contribution for L=           0  read in
    real space projection operators read in
  non local Contribution for L=           0  read in
    real space projection operators read in
    PAW grid and wavefunctions read in
 
   number of l-projection  operators is LMAX  =           4
   number of lm-projection operators is LMMAX =           8
 
 POTCAR:    PAW_PBE Cl 06Sep2000                  
   SHA256 =  9f1b6e6ed4247ac726a768b330d26d7667cc3c95a39ff49c1d064c2d9dcce931 Cl/POTCAR             
   COPYR  = (c) Copyright 06Sep2000 Georg Kresse                                                    
   COPYR  = This file is part of the software VASP. Any use, copying, and all other rights are regul
   COPYR  = If you do not have a valid VASP license, you may not use, copy or distribute this file. 
   VRHFIN =Cl: s2p5                                                                                 
   LEXCH  = PE                                                                                      
   EATOM  =   409.7259 eV,   30.1140 Ry                                                             
                                                                                                    
   TITEL  = PAW_PBE Cl 06Sep2000                                                                    
   LULTRA =        F    use ultrasoft PP ?                                                          
   IUNSCR =        1    unscreen: 0-lin 1-nonlin 2-no                                               
   RPACOR =    1.500    partial core radius                                                         
   POMASS =   35.453; ZVAL   =    7.000    mass and valenz                                          
   RCORE  =    1.900    outmost cutoff radius                                                       
   RWIGS  =    2.100; RWIGS  =    1.111    wigner-seitz radius (au A)                               
   ENMAX  =  262.472; ENMIN  =  196.854 eV                                                          
   ICORE  =        2    local potential                                                             
   LCOR   =        T    correct aug charges                                                         
   LPAW   =        T    paw PP                                                                      
   EAUG   =  356.192                                                                                
   DEXC   =    0.000                                                                                
   RMAX   =    1.945    core radius for proj-oper                                                   
   RAUG   =    1.300    factor for augmentation sphere                                              
   RDEP   =    2.020    radius for radial grids                                                     
   RDEPT  =    1.678    core radius for aug-charge                                                  
                                                                                                    
   Atomic configuration                                                                             
    6 entries                                                                                       
     n  l   j            E        occ.                                                              
     1  0  0.50     -2751.1850   2.0000                                                             
     2  0  0.50      -252.6861   2.0000                                                             
     2  1  1.50      -191.6157   6.0000                                                             
     3  0  0.50       -20.6916   2.0000                                                             
     3  1  0.50        -8.5949   5.0000                                                             
     3  2  1.50        -8.1635   0.0000                                                             
   Description                                                                                      
     l       E           TYP  RCUT    TYP  RCUT                                                     
     0    -20.6915656     23  1.900                                                                 
     0    -22.0521482     23  1.900                                                                 
     1     -8.5948577     23  1.900                                                                 
     1     -5.3847331     23  1.900                                                                 
     2     -8.1634956     23  1.900                                                                 
  local pseudopotential read in
  partial core-charges read in
  partial kinetic energy density read in
  atomic valenz-charges read in
  non local Contribution for L=           0  read in
    real space projection operators read in
  non local Contribution for L=           0  read in
    real space projection operators read in
  non local Contribution for L=           1  read in
    real space projection operators read in
  non local Contribution for L=           1  read in
    real space projection operators read in
    PAW grid and wavefunctions read in
 
   number of l-projection  operators is LMAX  =           4
   number of lm-projection operators is LMMAX =           8
 
 -----------------------------------------------------------------------------
|                                                                             |
|               ----> ADVICE to this user running VASP <----                  |
|                                                                             |
|     You have a (more or less) 'large supercell' and for larger cells it     |
|     might be more efficient to use real-space projection operators.         |
|     Therefore, try LREAL= Auto in the INCAR file.                           |
|     Mind: For very accurate calculation, you might also keep the            |
|     reciprocal projection scheme (i.e. LREAL=.FALSE.).                      |
|                                                                             |
 -----------------------------------------------------------------------------

 -----------------------------------------------------------------------------
|                                                                             |
|               ----> ADVICE to this user running VASP <----                  |
|                                                                             |
|     You enforced a specific xc type in the INCAR file but a different       |
|     type was found in the POTCAR file.                                      |
|     I HOPE YOU KNOW WHAT YOU ARE DOING!                                     |
|                                                                             |
 -----------------------------------------------------------------------------

  PAW_PBE Na_pv 19Sep2006               :
 energy of atom  1       EATOM= -766.0439
 kinetic energy error for atom=    0.0189 (will be added to EATOM!!)
  PAW_PBE Cl 06Sep2000                  :
 energy of atom  2       EATOM= -409.7259
 kinetic energy error for atom=    0.0106 (will be added to EATOM!!)
 
 
 POSCAR: Na Cl
  positions in cartesian coordinates
  No initial velocities read in
 exchange correlation table for  LEXCH =       14
   RHO(1)=    0.500       N(1)  =     2000
   RHO(2)=  100.500       N(2)  =     4000
 


--------------------------------------------------------------------------------------------------------


 ion  position               nearest neighbor table
   1  0.000  0.000  0.000-
   2  0.250  0.250  0.000-
   3  0.250  0.000  0.250-
   4  0.000  0.250  0.250-
   5  0.000  0.000  0.500-
   6  0.250  0.250  0.500-
   7  0.250  0.000  0.750-
   8  0.000  0.250  0.750-
   9  0.000  0.500  0.000-
  10  0.250  0.750  0.000-
  11  0.250  0.500  0.250-
  12  0.000  0.750  0.250-
  13  0.000  0.500  0.500-
  14  0.250  0.750  0.500-
  15  0.250  0.500  0.750-
  16  0.000  0.750  0.750-
  17  0.500  0.000  0.000-
  18  0.750  0.250  0.000-
  19  0.750  0.000  0.250-
  20  0.500  0.250  0.250-
  21  0.500  0.000  0.500-
  22  0.750  0.250  0.500-
  23  0.750  0.000  0.750-
  24  0.500  0.250  0.750-
  25  0.500  0.500  0.000-
  26  0.750  0.750  0.000-
  27  0.750  0.500  0.250-
  28  0.500  0.750  0.250-
  29  0.500  0.500  0.500-
  30  0.750  0.750  0.500-
  31  0.750  0.500  0.750-
  32  0.500  0.750  0.750-
  33  0.247  0.250  0.250-
  34  0.000  0.003  0.250-
  35  0.000  0.250  0.000-
  36  0.250  0.000  0.000-
  37  0.250  0.250  0.750-
  38  0.000  0.000  0.750-
  39  0.000  0.250  0.500-
  40  0.250  0.000  0.500-
  41  0.250  0.750  0.250-
  42  0.000  0.500  0.250-
  43  0.000  0.750  0.000-
  44  0.250  0.500  0.000-
  45  0.250  0.750  0.750-
  46  0.000  0.500  0.750-
  47  0.000  0.750  0.500-
  48  0.250  0.500  0.500-
  49  0.750  0.250  0.250-
  50  0.500  0.000  0.250-
  51  0.500  0.250  0.000-
  52  0.750  0.000  0.000-
  53  0.750  0.250  0.750-
  54  0.500  0.000  0.750-
  55  0.500  0.250  0.500-
  56  0.750  0.000  0.500-
  57  0.750  0.750  0.250-
  58  0.500  0.500  0.250-
  59  0.500  0.750  0.000-
  60  0.750  0.500  0.000-
  61  0.750  0.750  0.750-
  62  0.500  0.500  0.750-
  63  0.500  0.750  0.500-
  64  0.750  0.500  0.500-
 
  LATTYP: Found a simple cubic cell.
 ALAT       =    11.2040023600
  
  Lattice vectors:
  
 A1 = (  11.2040023600,   0.0000000000,   0.0000000000)
 A2 = (   0.0000000000,  11.2040023600,   0.0000000000)
 A3 = (   0.0000000000,   0.0000000000,  11.2040023600)


Analysis of symmetry for initial positions (statically):
=====================================================================
 Subroutine PRICEL returns:
 Original cell was already a primitive cell.
 

 Routine SETGRP: Setting up the symmetry group for a 
 simple cubic supercell.


 Subroutine GETGRP returns: Found  4 space group operations
 (whereof  1 operations were pure point group operations)
 out of a pool of 48 trial point group operations.


The static configuration has the point symmetry C_1 .
 The point group associated with its full space group is C_2v.


Analysis of symmetry for dynamics (positions and initial velocities):
=====================================================================
 Subroutine PRICEL returns:
 Original cell was already a primitive cell.
 

 Routine SETGRP: Setting up the symmetry group for a 
 simple cubic supercell.


 Subroutine GETGRP returns: Found  4 space group operations
 (whereof  1 operations were pure point group operations)
 out of a pool of 48 trial point group operations.


The dynamic configuration has the point symmetry C_1 .
 The point group associated with its full space group is C_2v.


 Subroutine INISYM returns: Found  4 space group operations
 (whereof  1 operations are pure point group operations),
 and found     1 'primitive' translations


----------------------------------------------------------------------------------------

                                     Primitive cell                                     

  volume of cell :    1406.4347

  direct lattice vectors                    reciprocal lattice vectors
    11.204002360  0.000000000  0.000000000     0.089253819  0.000000000  0.000000000
     0.000000000 11.204002360  0.000000000     0.000000000  0.089253819  0.000000000
     0.000000000  0.000000000 11.204002360     0.000000000  0.000000000  0.089253819

  length of vectors
    11.204002360 11.204002360 11.204002360     0.089253819  0.089253819  0.089253819

  position of ions in fractional coordinates (direct lattice)
     0.000000000  0.000000000  0.000000000
     0.250000000  0.250000000  0.000000000
     0.250000000  0.000000000  0.250000000
     0.000000000  0.250000000  0.250000000
     0.000000000  0.000000000  0.500000000
     0.250000000  0.250000000  0.500000000
     0.250000000  0.000000000  0.750000000
     0.000000000  0.250000000  0.750000000
     0.000000000  0.500000000  0.000000000
     0.250000000  0.750000000  0.000000000
     0.250000000  0.500000000  0.250000000
     0.000000000  0.750000000  0.250000000
     0.000000000  0.500000000  0.500000000
     0.250000000  0.750000000  0.500000000
     0.250000000  0.500000000  0.750000000
     0.000000000  0.750000000  0.750000000
     0.500000000  0.000000000  0.000000000
     0.750000000  0.250000000  0.000000000
     0.750000000  0.000000000  0.250000000
     0.500000000  0.250000000  0.250000000
     0.500000000  0.000000000  0.500000000
     0.750000000  0.250000000  0.500000000
     0.750000000  0.000000000  0.750000000
     0.500000000  0.250000000  0.750000000
     0.500000000  0.500000000  0.000000000
     0.750000000  0.750000000  0.000000000
     0.750000000  0.500000000  0.250000000
     0.500000000  0.750000000  0.250000000
     0.500000000  0.500000000  0.500000000
     0.750000000  0.750000000  0.500000000
     0.750000000  0.500000000  0.750000000
     0.500000000  0.750000000  0.750000000
     0.247322385  0.250000000  0.250000000
     0.000000000  0.002677615  0.250000000
     0.000000000  0.250000000  0.000000000
     0.250000000  0.000000000  0.000000000
     0.250000000  0.250000000  0.750000000
     0.000000000  0.000000000  0.750000000
     0.000000000  0.250000000  0.500000000
     0.250000000  0.000000000  0.500000000
     0.250000000  0.750000000  0.250000000
     0.000000000  0.500000000  0.250000000
     0.000000000  0.750000000  0.000000000
     0.250000000  0.500000000  0.000000000
     0.250000000  0.750000000  0.750000000
     0.000000000  0.500000000  0.750000000
     0.000000000  0.750000000  0.500000000
     0.250000000  0.500000000  0.500000000
     0.750000000  0.250000000  0.250000000
     0.500000000  0.000000000  0.250000000
     0.500000000  0.250000000  0.000000000
     0.750000000  0.000000000  0.000000000
     0.750000000  0.250000000  0.750000000
     0.500000000  0.000000000  0.750000000
     0.500000000  0.250000000  0.500000000
     0.750000000  0.000000000  0.500000000
     0.750000000  0.750000000  0.250000000
     0.500000000  0.500000000  0.250000000
     0.500000000  0.750000000  0.000000000
     0.750000000  0.500000000  0.000000000
     0.750000000  0.750000000  0.750000000
     0.500000000  0.500000000  0.750000000
     0.500000000  0.750000000  0.500000000
     0.750000000  0.500000000  0.500000000

  ion indices of the primitive-cell ions
   primitive index   ion index
                 1           1
                 2           2
                 3           3
                 4           4
                 5           5
                 6           6
                 7           7
                 8           8
                 9           9
                10          10
                11          11
                12          12
                13          13
                14          14
                15          15
                16          16
                17          17
                18          18
                19          19
                20          20
                21          21
                22          22
                23          23
                24          24
                25          25
                26          26
                27          27
                28          28
                29          29
                30          30
                31          31
                32          32
                33          33
                34          34
                35          35
                36          36
                37          37
                38          38
                39          39
                40          40
                41          41
                42          42
                43          43
                44          44
                45          45
                46          46
                47          47
                48          48
                49          49
                50          50
                51          51
                52          52
                53          53
                54          54
                55          55
                56          56
                57          57
                58          58
                59          59
                60          60
                61          61
                62          62
                63          63
                64          64

----------------------------------------------------------------------------------------

 
 
 KPOINTS: KPOINTS created by Atomic Simulation Env

Automatic generation of k-mesh.
 Grid dimensions read from file:
 generate k-points for:    2    2    2

 Generating k-lattice:

  Cartesian coordinates                     Fractional coordinates (reciprocal lattice)
     0.044626910  0.000000000  0.000000000     0.500000000  0.000000000  0.000000000
     0.000000000  0.044626910  0.000000000     0.000000000  0.500000000  0.000000000
     0.000000000  0.000000000  0.044626910     0.000000000  0.000000000  0.500000000

  Length of vectors
     0.044626910  0.044626910  0.044626910

  Shift w.r.t. Gamma in fractional coordinates (k-lattice)
     0.000000000  0.000000000  0.000000000

 
 Subroutine IBZKPT returns following result:
 ===========================================
 
 Found      6 irreducible k-points:
 
 Following reciprocal coordinates:
            Coordinates               Weight
  0.000000  0.000000  0.000000      1.000000
  0.500000  0.000000  0.000000      2.000000
  0.000000  0.000000  0.500000      1.000000
  0.500000  0.500000  0.000000      1.000000
  0.000000  0.500000  0.500000      2.000000
  0.500000  0.500000  0.500000      1.000000
 
 Following cartesian coordinates:
            Coordinates               Weight
  0.000000  0.000000  0.000000      1.000000
  0.044627  0.000000  0.000000      2.000000
  0.000000  0.000000  0.044627      1.000000
  0.044627  0.044627  0.000000      1.000000
  0.000000  0.044627  0.044627      2.000000
  0.044627  0.044627  0.044627      1.000000
 


--------------------------------------------------------------------------------------------------------




 Dimension of arrays:
   k-points           NKPTS =      6   k-points in BZ     NKDIM =      6   number of bands    NBANDS=    288
   number of dos      NEDOS =    301   number of ions     NIONS =     64
   non local maximal  LDIM  =      4   non local SUM 2l+1 LMDIM =      8
   total plane-waves  NPLWV = 343000
   max r-space proj   IRMAX =      1   max aug-charges    IRDMAX=  56280
   dimension x,y,z NGX =    70 NGY =   70 NGZ =   70
   dimension x,y,z NGXF=   140 NGYF=  140 NGZF=  140
   support grid    NGXF=   280 NGYF=  280 NGZF=  280
   ions per type =              32  32
   NGX,Y,Z   is equivalent  to a cutoff of  10.39, 10.39, 10.39 a.u.
   NGXF,Y,Z  is equivalent  to a cutoff of  20.77, 20.77, 20.77 a.u.

 SYSTEM =  unknown system                          
 POSCAR =  Na Cl                                   

 Startparameter for this run:
   NWRITE =      2    write-flag & timer
   PREC   = accura    normal or accurate (medium, high low for compatibility)
   ISTART =      0    job   : 0-new  1-cont  2-samecut
   ICHARG =      2    charge: 1-file 2-atom 10-const
   ISPIN  =      1    spin polarized calculation?
   LNONCOLLINEAR =      F non collinear calculations
   LSORBIT =      F    spin-orbit coupling
   INIWAV =      1    electr: 0-lowe 1-rand  2-diag
   LASPH  =      F    aspherical Exc in radial PAW
 Electronic Relaxation 1
   ENCUT  =  341.2 eV  25.08 Ry    5.01 a.u.  16.87 16.87 16.87*2*pi/ulx,y,z
   ENINI  =  341.2     initial cutoff
   ENAUG  =  368.1 eV  augmentation charge cutoff
   NELM   =     60;   NELMIN=  5; NELMDL= -5     # of ELM steps 
   EDIFF  = 0.1E-07   stopping-criterion for ELM
   LREAL  =      F    real-space projection
   NLSPLINE    = F    spline interpolate recip. space projectors
   LCOMPAT=      F    compatible to vasp.4.4
   GGA_COMPAT  = T    GGA compatible to vasp.4.4-vasp.4.6
   LMAXPAW     = -100 max onsite density
   LMAXMIX     =    2 max onsite mixed and CHGCAR
   VOSKOWN=      0    Vosko Wilk Nusair interpolation
   ROPT   =    0.00000   0.00000
 Ionic relaxation
   EDIFFG = 0.1E-06   stopping-criterion for IOM
   NSW    =      0    number of steps for IOM
   NBLOCK =      1;   KBLOCK =      1    inner block; outer block 
   IBRION =     -1    ionic relax: 0-MD 1-quasi-New 2-CG
   NFREE  =      0    steps in history (QN), initial steepest desc. (CG)
   ISIF   =      2    stress and relaxation
   IWAVPR =     10    prediction:  0-non 1-charg 2-wave 3-comb
   ISYM   =      2    0-nonsym 1-usesym 2-fastsym
   LCORR  =      T    Harris-Foulkes like correction to forces

   POTIM  = 0.5000    time-step for ionic-motion
   TEIN   =    0.0    initial temperature
   TEBEG  =    0.0;   TEEND  =   0.0 temperature during run
   SMASS  =  -3.00    Nose mass-parameter (am)
   estimated Nose-frequenzy (Omega)   =  0.10E-29 period in steps = 0.13E+47 mass=  -0.287E-26a.u.
   SCALEE = 1.0000    scale energy and forces
   NPACO  =    256;   APACO  = 10.0  distance and # of slots for P.C.
   PSTRESS=    0.0 pullay stress

  Mass of Ions in am
   POMASS =  22.99 35.45
  Ionic Valenz
   ZVAL   =   7.00  7.00
  Atomic Wigner-Seitz radii
   RWIGS  =  -1.00 -1.00
  virtual crystal weights 
   VCA    =   1.00  1.00
   NELECT =     448.0000    total number of electrons
   NUPDOWN=      -1.0000    fix difference up-down

 DOS related values:
   EMIN   =  10.00;   EMAX   =-10.00  energy-range for DOS
   EFERMI =   0.00
   ISMEAR =     0;   SIGMA  =   0.02  broadening in eV -4-tet -1-fermi 0-gaus

 Electronic relaxation 2 (details)
   IALGO  =     38    algorithm
   LDIAG  =      T    sub-space diagonalisation (order eigenvalues)
   LSUBROT=      F    optimize rotation matrix (better conditioning)
   TURBO    =      0    0=normal 1=particle mesh
   IRESTART =      0    0=no restart 2=restart with 2 vectors
   NREBOOT  =      0    no. of reboots
   NMIN     =      0    reboot dimension
   EREF     =   0.00    reference energy to select bands
   IMIX   =      4    mixing-type and parameters
     AMIX     =   0.40;   BMIX     =  1.00
     AMIX_MAG =   1.60;   BMIX_MAG =  1.00
     AMIN     =   0.10
     WC   =   100.;   INIMIX=   1;  MIXPRE=   1;  MAXMIX= -45

 Intra band minimization:
   WEIMIN = 0.0000     energy-eigenvalue tresh-hold
   EBREAK =  0.87E-11  absolut break condition
   DEPER  =   0.30     relativ break condition  

   TIME   =   0.40     timestep for ELM

  volume/ion in A,a.u.               =      21.98       148.30
  Fermi-wavevector in a.u.,A,eV,Ry     =   1.118049  2.112807 17.007750  1.250034
  Thomas-Fermi vector in A             =   2.254677
 
 Write flags
   LWAVE        =      F    write WAVECAR
   LDOWNSAMPLE  =      F    k-point downsampling of WAVECAR
   LCHARG       =      F    write CHGCAR
   LVTOT        =      F    write LOCPOT, total local potential
   LVHAR        =      F    write LOCPOT, Hartree potential only
   LELF         =      F    write electronic localiz. function (ELF)
   LORBIT       =      0    0 simple, 1 ext, 2 COOP (PROOUT), +10 PAW based schemes


 Dipole corrections
   LMONO  =      F    monopole corrections only (constant potential shift)
   LDIPOL =      F    correct potential (dipole corrections)
   IDIPOL =      0    1-x, 2-y, 3-z, 4-all directions 
   EPSILON=  1.0000000 bulk dielectric constant

 Exchange correlation treatment:
   GGA     =    PS    GGA type
   LEXCH   =    14    internal setting for exchange type
   LIBXC   =     F    Libxc                    
   VOSKOWN =     0    Vosko Wilk Nusair interpolation
   LHFCALC =     F    Hartree Fock is set to
   LHFONE  =     F    Hartree Fock one center treatment
   AEXX    =    0.0000 exact exchange contribution

 Linear response parameters
   LEPSILON=     F    determine dielectric tensor
   LRPA    =     F    only Hartree local field effects (RPA)
   LNABLA  =     F    use nabla operator in PAW spheres
   LVEL    =     F    velocity operator in full k-point grid
   CSHIFT  =0.1000    complex shift for real part using Kramers Kronig
   OMEGAMAX=  -1.0    maximum frequency
   DEG_THRESHOLD= 0.2000000E-02 threshold for treating states as degnerate
   RTIME   =   -0.100 relaxation time in fs
  (WPLASMAI=    0.000 imaginary part of plasma frequency in eV, 0.658/RTIME)
   DFIELD  = 0.0000000 0.0000000 0.0000000 field for delta impulse in time
 
  Optional k-point grid parameters
   LKPOINTS_OPT  =     F    use optional k-point grid
   KPOINTS_OPT_MODE=     1    mode for optional k-point grid
 
 Orbital magnetization related:
   ORBITALMAG=     F  switch on orbital magnetization
   LCHIMAG   =     F  perturbation theory with respect to B field
   DQ        =  0.001000  dq finite difference perturbation B field
   LLRAUG    =     F  two centre corrections for induced B field



--------------------------------------------------------------------------------------------------------


 Static calculation
 charge density and potential will be updated during run
 non-spin polarized calculation
 Variant of blocked Davidson
 Davidson routine will perform the subspace rotation
 perform sub-space diagonalisation
    after iterative eigenvector-optimisation
 modified Broyden-mixing scheme, WC =      100.0
 initial mixing is a Kerker type mixing with AMIX =  0.4000 and BMIX =      1.0000
 Hartree-type preconditioning will be used
 using additional bands           64
 reciprocal scheme for non local part
 use partial core corrections
 calculate Harris-corrections to forces 
   (improved forces if not selfconsistent)
 use gradient corrections 
 use of overlap-Matrix (Vanderbilt PP)
 Gauss-broadening in eV      SIGMA  =   0.02


--------------------------------------------------------------------------------------------------------


  energy-cutoff  :      341.21
  volume of cell :     1406.43
      direct lattice vectors                 reciprocal lattice vectors
    11.204002360  0.000000000  0.000000000     0.089253819  0.000000000  0.000000000
     0.000000000 11.204002360  0.000000000     0.000000000  0.089253819  0.000000000
     0.000000000  0.000000000 11.204002360     0.000000000  0.000000000  0.089253819

  length of vectors
    11.204002360 11.204002360 11.204002360     0.089253819  0.089253819  0.089253819


 
 k-points in units of 2pi/SCALE and weight: KPOINTS created by Atomic Simulation Env
   0.00000000  0.00000000  0.00000000       0.125
   0.04462691  0.00000000  0.00000000       0.250
   0.00000000  0.00000000  0.04462691       0.125
   0.04462691  0.04462691  0.00000000       0.125
   0.00000000  0.04462691  0.04462691       0.250
   0.04462691  0.04462691  0.04462691       0.125
 
 k-points in reciprocal lattice and weights: KPOINTS created by Atomic Simulation Env
   0.00000000  0.00000000  0.00000000       0.125
   0.50000000  0.00000000  0.00000000       0.250
   0.00000000  0.00000000  0.50000000       0.125
   0.50000000  0.50000000  0.00000000       0.125
   0.00000000  0.50000000  0.50000000       0.250
   0.50000000  0.50000000  0.50000000       0.125
 
 position of ions in fractional coordinates (direct lattice) 
   0.00000000  0.00000000  0.00000000
   0.25000000  0.25000000  0.00000000
   0.25000000  0.00000000  0.25000000
   0.00000000  0.25000000  0.25000000
   0.00000000  0.00000000  0.50000000
   0.25000000  0.25000000  0.50000000
   0.25000000  0.00000000  0.75000000
   0.00000000  0.25000000  0.75000000
   0.00000000  0.50000000  0.00000000
   0.25000000  0.75000000  0.00000000
   0.25000000  0.50000000  0.25000000
   0.00000000  0.75000000  0.25000000
   0.00000000  0.50000000  0.50000000
   0.25000000  0.75000000  0.50000000
   0.25000000  0.50000000  0.75000000
   0.00000000  0.75000000  0.75000000
   0.50000000  0.00000000  0.00000000
   0.75000000  0.25000000  0.00000000
   0.75000000  0.00000000  0.25000000
   0.50000000  0.25000000  0.25000000
   0.50000000  0.00000000  0.50000000
   0.75000000  0.25000000  0.50000000
   0.75000000  0.00000000  0.75000000
   0.50000000  0.25000000  0.75000000
   0.50000000  0.50000000  0.00000000
   0.75000000  0.75000000  0.00000000
   0.75000000  0.50000000  0.25000000
   0.50000000  0.75000000  0.25000000
   0.50000000  0.50000000  0.50000000
   0.75000000  0.75000000  0.50000000
   0.75000000  0.50000000  0.75000000
   0.50000000  0.75000000  0.75000000
   0.24732239  0.25000000  0.25000000
   0.00000000  0.00267761  0.25000000
   0.00000000  0.25000000  0.00000000
   0.25000000  0.00000000  0.00000000
   0.25000000  0.25000000  0.75000000
   0.00000000  0.00000000  0.75000000
   0.00000000  0.25000000  0.50000000
   0.25000000  0.00000000  0.50000000
   0.25000000  0.75000000  0.25000000
   0.00000000  0.50000000  0.25000000
   0.00000000  0.75000000  0.00000000
   0.25000000  0.50000000  0.00000000
   0.25000000  0.75000000  0.75000000
   0.00000000  0.50000000  0.75000000
   0.00000000  0.75000000  0.50000000
   0.25000000  0.50000000  0.50000000
   0.75000000  0.25000000  0.25000000
   0.50000000  0.00000000  0.25000000
   0.50000000  0.25000000  0.00000000
   0.75000000  0.00000000  0.00000000
   0.75000000  0.25000000  0.75000000
   0.50000000  0.00000000  0.75000000
   0.50000000  0.25000000  0.50000000
   0.75000000  0.00000000  0.50000000
   0.75000000  0.75000000  0.25000000
   0.50000000  0.50000000  0.25000000
   0.50000000  0.75000000  0.00000000
   0.75000000  0.50000000  0.00000000
   0.75000000  0.75000000  0.75000000
   0.50000000  0.50000000  0.75000000
   0.50000000  0.75000000  0.50000000
   0.75000000  0.50000000  0.50000000
 
 position of ions in cartesian coordinates  (Angst):
   0.00000000  0.00000000  0.00000000
   2.80100059  2.80100059  0.00000000
   2.80100059  0.00000000  2.80100059
   0.00000000  2.80100059  2.80100059
   0.00000000  0.00000000  5.60200118
   2.80100059  2.80100059  5.60200118
   2.80100059  0.00000000  8.40300177
   0.00000000  2.80100059  8.40300177
   0.00000000  5.60200118  0.00000000
   2.80100059  8.40300177  0.00000000
   2.80100059  5.60200118  2.80100059
   0.00000000  8.40300177  2.80100059
   0.00000000  5.60200118  5.60200118
   2.80100059  8.40300177  5.60200118
   2.80100059  5.60200118  8.40300177
   0.00000000  8.40300177  8.40300177
   5.60200118  0.00000000  0.00000000
   8.40300177  2.80100059  0.00000000
   8.40300177  0.00000000  2.80100059
   5.60200118  2.80100059  2.80100059
   5.60200118  0.00000000  5.60200118
   8.40300177  2.80100059  5.60200118
   8.40300177  0.00000000  8.40300177
   5.60200118  2.80100059  8.40300177
   5.60200118  5.60200118  0.00000000
   8.40300177  8.40300177  0.00000000
   8.40300177  5.60200118  2.80100059
   5.60200118  8.40300177  2.80100059
   5.60200118  5.60200118  5.60200118
   8.40300177  8.40300177  5.60200118
   8.40300177  5.60200118  8.40300177
   5.60200118  8.40300177  8.40300177
   2.77100059  2.80100059  2.80100059
   0.00000000  0.03000000  2.80100059
   0.00000000  2.80100059  0.00000000
   2.80100059  0.00000000  0.00000000
   2.80100059  2.80100059  8.40300177
   0.00000000  0.00000000  8.40300177
   0.00000000  2.80100059  5.60200118
   2.80100059  0.00000000  5.60200118
   2.80100059  8.40300177  2.80100059
   0.00000000  5.60200118  2.80100059
   0.00000000  8.40300177  0.00000000
   2.80100059  5.60200118  0.00000000
   2.80100059  8.40300177  8.40300177
   0.00000000  5.60200118  8.40300177
   0.00000000  8.40300177  5.60200118
   2.80100059  5.60200118  5.60200118
   8.40300177  2.80100059  2.80100059
   5.60200118  0.00000000  2.80100059
   5.60200118  2.80100059  0.00000000
   8.40300177  0.00000000  0.00000000
   8.40300177  2.80100059  8.40300177
   5.60200118  0.00000000  8.40300177
   5.60200118  2.80100059  5.60200118
   8.40300177  0.00000000  5.60200118
   8.40300177  8.40300177  2.80100059
   5.60200118  5.60200118  2.80100059
   5.60200118  8.40300177  0.00000000
   8.40300177  5.60200118  0.00000000
   8.40300177  8.40300177  8.40300177
   5.60200118  5.60200118  8.40300177
   5.60200118  8.40300177  5.60200118
   8.40300177  5.60200118  5.60200118
 


--------------------------------------------------------------------------------------------------------


 k-point   1 :   0.0000 0.0000 0.0000  plane waves:   20005
 k-point   2 :   0.5000 0.0000 0.0000  plane waves:   20138
 k-point   3 :   0.0000 0.0000 0.5000  plane waves:   20138
 k-point   4 :   0.5000 0.5000 0.0000  plane waves:   20160
 k-point   5 :   0.0000 0.5000 0.5000  plane waves:   20160
 k-point   6 :   0.5000 0.5000 0.5000  plane waves:   20336

 maximum and minimum number of plane-waves per node :     20336    20005

 maximum number of plane-waves:     20336
 maximum index in each direction: 
   IXMAX=   16   IYMAX=   16   IZMAX=   16
   IXMIN=  -17   IYMIN=  -17   IZMIN=  -17


 serial   3D FFT for wavefunctions
 parallel 3D FFT for charge:
    minimum data exchange during FFTs selected (reduces bandwidth)


 total amount of memory used by VASP MPI-rank0   118439. kBytes
=======================================================================

   base      :      30000. kBytes
   nonl-proj :      36470. kBytes
   fftplans  :      14405. kBytes
   grid      :      19342. kBytes
   one-center:        196. kBytes
   wavefun   :      18026. kBytes
 
     INWAV:  cpu time      0.0000: real time      0.0000
 Broyden mixing: mesh for mixing (old mesh)
   NGX = 33   NGY = 33   NGZ = 33
  (NGX  =140   NGY  =140   NGZ  =140)
  gives a total of  35937 points

 initial charge density was supplied:
 charge density of overlapping atoms calculated
 number of electron     448.0000000 magnetization 
 keeping initial charge density in first step


--------------------------------------------------------------------------------------------------------


 Maximum index for augmentation-charges         1834 (set IRDMAX)


--------------------------------------------------------------------------------------------------------


 First call to EWALD:  gamma=   0.158
 Maximum number of real-space cells 3x 3x 3
 Maximum number of reciprocal cells 3x 3x 3

    FEWALD:  cpu time      0.0015: real time      0.0015


--------------------------------------- Iteration      1(   1)  ---------------------------------------


    POTLOK:  cpu time      0.0417: real time      0.0423
    SETDIJ:  cpu time      0.0316: real time      0.0318
     EDDAV:  cpu time      7.7163: real time      7.7584
       DOS:  cpu time      0.0012: real time      0.0012
    --------------------------------------------
      LOOP:  cpu time      7.7908: real time      7.8338

 eigenvalue-minimisations  :  3648
 total energy-change (2. order) : 0.4386816E+04  (-0.1713203E+05)
 number of electron     448.0000000 magnetization 
 augmentation part      448.0000000 magnetization 

 Free energy of the ion-electron system (eV)
  ---------------------------------------------------
  alpha Z        PSCENC =       751.52672365
  Ewald energy   TEWEN  =    -22871.32574669
  -Hartree energ DENC   =     -8992.26253839
  -exchange      EXHF   =         0.00000000
  -V(xc)+E(xc)   XCENC  =      1456.53431672
  PAW double counting   =     26466.43774078   -29286.08056155
  entropy T*S    EENTRO =        -0.00032134
  eigenvalues    EBANDS =      -670.19309705
  atomic energy  EATOM  =     37532.17946992
  Solvation  Ediel_sol  =         0.00000000
  ---------------------------------------------------
  free energy    TOTEN  =      4386.81598605 eV

  energy without entropy =     4386.81630739  energy(sigma->0) =     4386.81614672


--------------------------------------------------------------------------------------------------------




--------------------------------------- Iteration      1(   2)  ---------------------------------------


     EDDAV:  cpu time      8.0901: real time      8.1360
       DOS:  cpu time      0.0005: real time      0.0005
    --------------------------------------------
      LOOP:  cpu time      8.0905: real time      8.1365

 eigenvalue-minimisations  :  3872
 total energy-change (2. order) :-0.4022459E+04  (-0.3823877E+04)
 number of electron     448.0000000 magnetization 
 augmentation part      448.0000000 magnetization 

 Free energy of the ion-electron system (eV)
  ---------------------------------------------------
  alpha Z        PSCENC =       751.52672365
  Ewald energy   TEWEN  =    -22871.32574669
  -Hartree energ DENC   =     -8992.26253839
  -exchange      EXHF   =         0.00000000
  -V(xc)+E(xc)   XCENC  =      1456.53431672
  PAW double counting   =     26466.43774078   -29286.08056155
  entropy T*S    EENTRO =        -0.00000000
  eigenvalues    EBANDS =     -4692.65229681
  atomic energy  EATOM  =     37532.17946992
  Solvation  Ediel_sol  =         0.00000000
  ---------------------------------------------------
  free energy    TOTEN  =       364.35710763 eV

  energy without entropy =      364.35710763  energy(sigma->0) =      364.35710763


--------------------------------------------------------------------------------------------------------




--------------------------------------- Iteration      1(   3)  ---------------------------------------


     EDDAV:  cpu time      8.5817: real time      8.6299
       DOS:  cpu time      0.0006: real time      0.0006
    --------------------------------------------
      LOOP:  cpu time      8.5823: real time      8.6305

 eigenvalue-minimisations  :  4160
 total energy-change (2. order) :-0.5694368E+03  (-0.5650053E+03)
 number of electron     448.0000000 magnetization 
 augmentation part      448.0000000 magnetization 

 Free energy of the ion-electron system (eV)
  ---------------------------------------------------
  alpha Z        PSCENC =       751.52672365
  Ewald energy   TEWEN  =    -22871.32574669
  -Hartree energ DENC   =     -8992.26253839
  -exchange      EXHF   =         0.00000000
  -V(xc)+E(xc)   XCENC  =      1456.53431672
  PAW double counting   =     26466.43774078   -29286.08056155
  entropy T*S    EENTRO =        -0.00000000
  eigenvalues    EBANDS =     -5262.08913706
  atomic energy  EATOM  =     37532.17946992
  Solvation  Ediel_sol  =         0.00000000
  ---------------------------------------------------
  free energy    TOTEN  =      -205.07973262 eV

  energy without entropy =     -205.07973262  energy(sigma->0) =     -205.07973262


--------------------------------------------------------------------------------------------------------




--------------------------------------- Iteration      1(   4)  ---------------------------------------


     EDDAV:  cpu time      8.5967: real time      8.6453
       DOS:  cpu time      0.0006: real time      0.0006
    --------------------------------------------
      LOOP:  cpu time      8.5973: real time      8.6459

 eigenvalue-minimisations  :  4160
 total energy-change (2. order) :-0.2305659E+02  (-0.2294115E+02)
 number of electron     448.0000000 magnetization 
 augmentation part      448.0000000 magnetization 

 Free energy of the ion-electron system (eV)
  ---------------------------------------------------
  alpha Z        PSCENC =       751.52672365
  Ewald energy   TEWEN  =    -22871.32574669
  -Hartree energ DENC   =     -8992.26253839
  -exchange      EXHF   =         0.00000000
  -V(xc)+E(xc)   XCENC  =      1456.53431672
  PAW double counting   =     26466.43774078   -29286.08056155
  entropy T*S    EENTRO =        -0.00000000
  eigenvalues    EBANDS =     -5285.14573134
  atomic energy  EATOM  =     37532.17946992
  Solvation  Ediel_sol  =         0.00000000
  ---------------------------------------------------
  free energy    TOTEN  =      -228.13632690 eV

  energy without entropy =     -228.13632690  energy(sigma->0) =     -228.13632690


--------------------------------------------------------------------------------------------------------




--------------------------------------- Iteration      1(   5)  ---------------------------------------


     EDDAV:  cpu time      9.0064: real time      9.0571
       DOS:  cpu time      0.0005: real time      0.0005
    CHARGE:  cpu time      0.2712: real time      0.2729
    MIXING:  cpu time      0.0012: real time      0.0012
    --------------------------------------------
      LOOP:  cpu time      9.2794: real time      9.3317

 eigenvalue-minimisations  :  4416
 total energy-change (2. order) :-0.8661366E+00  (-0.8645805E+00)
 number of electron     448.0000022 magnetization 
 augmentation part      111.6389935 magnetization 

 Broyden mixing:
  rms(total) = 0.10606E+01    rms(broyden)= 0.10602E+01
  rms(prec ) = 0.14934E+01
  weight for this iteration     100.00

 Free energy of the ion-electron system (eV)
  ---------------------------------------------------
  alpha Z        PSCENC =       751.52672365
  Ewald energy   TEWEN  =    -22871.32574669
  -Hartree energ DENC   =     -8992.26253839
  -exchange      EXHF   =         0.00000000
  -V(xc)+E(xc)   XCENC  =      1456.53431672
  PAW double counting   =     26466.43774078   -29286.08056155
  entropy T*S    EENTRO =        -0.00000000
  eigenvalues    EBANDS =     -5286.01186797
  atomic energy  EATOM  =     37532.17946992
  Solvation  Ediel_sol  =         0.00000000
  ---------------------------------------------------
  free energy    TOTEN  =      -229.00246353 eV

  energy without entropy =     -229.00246353  energy(sigma->0) =     -229.00246353


--------------------------------------------------------------------------------------------------------




--------------------------------------- Iteration      1(   6)  ---------------------------------------


    POTLOK:  cpu time      0.0367: real time      0.0375
    SETDIJ:  cpu time      0.0296: real time      0.0298
     EDDAV:  cpu time      8.7704: real time      8.8194
       DOS:  cpu time      0.0004: real time      0.0004
    CHARGE:  cpu time      0.2701: real time      0.2715
    MIXING:  cpu time      0.0025: real time      0.0025
    --------------------------------------------
      LOOP:  cpu time      9.1097: real time      9.1611

 eigenvalue-minimisations  :  4256
 total energy-change (2. order) : 0.4863598E+01  (-0.9461279E+00)
 number of electron     448.0000022 magnetization 
 augmentation part      112.4588889 magnetization 

 Broyden mixing:
  rms(total) = 0.77466E+00    rms(broyden)= 0.77461E+00
  rms(prec ) = 0.89100E+00
  weight for this iteration     100.00

 eigenvalues of (default mixing * dielectric matrix)
  average eigenvalue GAMMA=   1.0799
  1.0799

 Free energy of the ion-electron system (eV)
  ---------------------------------------------------
  alpha Z        PSCENC =       751.52672365
  Ewald energy   TEWEN  =    -22871.32574669
  -Hartree energ DENC   =     -9061.63349836
  -exchange      EXHF   =         0.00000000
  -V(xc)+E(xc)   XCENC  =      1465.41841887
  PAW double counting   =     27291.09850019   -30102.97245882
  entropy T*S    EENTRO =        -0.00000000
  eigenvalues    EBANDS =     -5228.43027407
  atomic energy  EATOM  =     37532.17946992
  Solvation  Ediel_sol  =         0.00000000
  ---------------------------------------------------
  free energy    TOTEN  =      -224.13886531 eV

  energy without entropy =     -224.13886531  energy(sigma->0) =     -224.13886531


--------------------------------------------------------------------------------------------------------




--------------------------------------- Iteration      1(   7)  ---------------------------------------


    POTLOK:  cpu time      0.0357: real time      0.0359
    SETDIJ:  cpu time      0.0300: real time      0.0301
     EDDAV:  cpu time      9.4544: real time      9.5071
       DOS:  cpu time      0.0004: real time      0.0004
    CHARGE:  cpu time      0.2683: real time      0.2699
    MIXING:  cpu time      0.0013: real time      0.0013
    --------------------------------------------
      LOOP:  cpu time      9.7901: real time      9.8448

 eigenvalue-minimisations  :  4672
 total energy-change (2. order) : 0.3615853E+00  (-0.2081683E+00)
 number of electron     448.0000022 magnetization 
 augmentation part      112.8287466 magnetization 

 Broyden mixing:
  rms(total) = 0.53341E+00    rms(broyden)= 0.53339E+00
  rms(prec ) = 0.56327E+00
  weight for this iteration     100.00

 eigenvalues of (default mixing * dielectric matrix)
  average eigenvalue GAMMA=   2.1653
  1.4425  2.8881

 Free energy of the ion-electron system (eV)
  ---------------------------------------------------
  alpha Z        PSCENC =       751.52672365
  Ewald energy   TEWEN  =    -22871.32574669
  -Hartree energ DENC   =     -9085.89024079
  -exchange      EXHF   =         0.00000000
  -V(xc)+E(xc)   XCENC  =      1470.13545158
  PAW double counting   =     28330.09096831   -31142.81048130
  entropy T*S    EENTRO =        -0.00000000
  eigenvalues    EBANDS =     -5207.68342475
  atomic energy  EATOM  =     37532.17946992
  Solvation  Ediel_sol  =         0.00000000
  ---------------------------------------------------
  free energy    TOTEN  =      -223.77728006 eV

  energy without entropy =     -223.77728006  energy(sigma->0) =     -223.77728006


--------------------------------------------------------------------------------------------------------




--------------------------------------- Iteration      1(   8)  ---------------------------------------


    POTLOK:  cpu time      0.0365: real time      0.0415
    SETDIJ:  cpu time      0.0298: real time      0.0299
     EDDAV:  cpu time      8.4374: real time      8.4845
       DOS:  cpu time      0.0005: real time      0.0005
    CHARGE:  cpu time      0.2695: real time      0.2711
    MIXING:  cpu time      0.0012: real time      0.0012
    --------------------------------------------
      LOOP:  cpu time      8.7748: real time      8.8287

 eigenvalue-minimisations  :  4064
 total energy-change (2. order) :-0.1255492E+00  (-0.2698406E-01)
 number of electron     448.0000022 magnetization 
 augmentation part      112.8075150 magnetization 

 Broyden mixing:
  rms(total) = 0.14634E+00    rms(broyden)= 0.14634E+00
  rms(prec ) = 0.14935E+00
  weight for this iteration     100.00

 eigenvalues of (default mixing * dielectric matrix)
  average eigenvalue GAMMA=   1.5543
  2.5419  1.3921  0.7288

 Free energy of the ion-electron system (eV)
  ---------------------------------------------------
  alpha Z        PSCENC =       751.52672365
  Ewald energy   TEWEN  =    -22871.32574669
  -Hartree energ DENC   =     -9075.05847099
  -exchange      EXHF   =         0.00000000
  -V(xc)+E(xc)   XCENC  =      1472.33979949
  PAW double counting   =     29818.15411665   -32638.08545387
  entropy T*S    EENTRO =        -0.00000000
  eigenvalues    EBANDS =     -5213.63326739
  atomic energy  EATOM  =     37532.17946992
  Solvation  Ediel_sol  =         0.00000000
  ---------------------------------------------------
  free energy    TOTEN  =      -223.90282923 eV

  energy without entropy =     -223.90282923  energy(sigma->0) =     -223.90282923


--------------------------------------------------------------------------------------------------------




--------------------------------------- Iteration      1(   9)  ---------------------------------------


    POTLOK:  cpu time      0.0359: real time      0.0362
    SETDIJ:  cpu time      0.0296: real time      0.0298
     EDDAV:  cpu time      8.7495: real time      8.7985
       DOS:  cpu time      0.0004: real time      0.0004
    CHARGE:  cpu time      0.2707: real time      0.2723
    MIXING:  cpu time      0.0012: real time      0.0012
    --------------------------------------------
      LOOP:  cpu time      9.0872: real time      9.1384

 eigenvalue-minimisations  :  4256
 total energy-change (2. order) : 0.5900187E-02  (-0.1128294E-02)
 number of electron     448.0000022 magnetization 
 augmentation part      112.8299446 magnetization 

 Broyden mixing:
  rms(total) = 0.63899E-01    rms(broyden)= 0.63899E-01
  rms(prec ) = 0.65911E-01
  weight for this iteration     100.00

 eigenvalues of (default mixing * dielectric matrix)
  average eigenvalue GAMMA=   1.9879
  2.7773  2.7773  1.0001  1.3969

 Free energy of the ion-electron system (eV)
  ---------------------------------------------------
  alpha Z        PSCENC =       751.52672365
  Ewald energy   TEWEN  =    -22871.32574669
  -Hartree energ DENC   =     -9077.82906994
  -exchange      EXHF   =         0.00000000
  -V(xc)+E(xc)   XCENC  =      1472.35657787
  PAW double counting   =     29638.02801152   -32457.09344410
  entropy T*S    EENTRO =        -0.00000000
  eigenvalues    EBANDS =     -5211.73945128
  atomic energy  EATOM  =     37532.17946992
  Solvation  Ediel_sol  =         0.00000000
  ---------------------------------------------------
  free energy    TOTEN  =      -223.89692905 eV

  energy without entropy =     -223.89692905  energy(sigma->0) =     -223.89692905


--------------------------------------------------------------------------------------------------------




--------------------------------------- Iteration      1(  10)  ---------------------------------------


    POTLOK:  cpu time      0.0359: real time      0.0362
    SETDIJ:  cpu time      0.0299: real time      0.0300
     EDDAV:  cpu time      8.5378: real time      8.5854
       DOS:  cpu time      0.0005: real time      0.0005
    CHARGE:  cpu time      0.2672: real time      0.2689
    MIXING:  cpu time      0.0025: real time      0.0025
    --------------------------------------------
      LOOP:  cpu time      8.8738: real time      8.9235

 eigenvalue-minimisations  :  4128
 total energy-change (2. order) :-0.4100783E-02  (-0.1918890E-02)
 number of electron     448.0000022 magnetization 
 augmentation part      112.8614014 magnetization 

 Broyden mixing:
  rms(total) = 0.29253E-01    rms(broyden)= 0.29250E-01
  rms(prec ) = 0.31427E-01
  weight for this iteration     100.00

 eigenvalues of (default mixing * dielectric matrix)
  average eigenvalue GAMMA=   1.7086
  2.9300  2.5155  1.2931  1.0221  0.7822

 Free energy of the ion-electron system (eV)
  ---------------------------------------------------
  alpha Z        PSCENC =       751.52672365
  Ewald energy   TEWEN  =    -22871.32574669
  -Hartree energ DENC   =     -9079.51562008
  -exchange      EXHF   =         0.00000000
  -V(xc)+E(xc)   XCENC  =      1472.60630124
  PAW double counting   =     29456.52461643   -32275.72419347
  entropy T*S    EENTRO =        -0.00000000
  eigenvalues    EBANDS =     -5210.17258084
  atomic energy  EATOM  =     37532.17946992
  Solvation  Ediel_sol  =         0.00000000
  ---------------------------------------------------
  free energy    TOTEN  =      -223.90102983 eV

  energy without entropy =     -223.90102983  energy(sigma->0) =     -223.90102983


--------------------------------------------------------------------------------------------------------




--------------------------------------- Iteration      1(  11)  ---------------------------------------


    POTLOK:  cpu time      0.0354: real time      0.0357
    SETDIJ:  cpu time      0.0301: real time      0.0302
     EDDAV:  cpu time      8.6438: real time      8.6918
       DOS:  cpu time      0.0003: real time      0.0003
    CHARGE:  cpu time      0.2713: real time      0.2729
    MIXING:  cpu time      0.0012: real time      0.0012
    --------------------------------------------
      LOOP:  cpu time      8.9820: real time      9.0321

 eigenvalue-minimisations  :  4192
 total energy-change (2. order) : 0.7447563E-03  (-0.1694076E-03)
 number of electron     448.0000022 magnetization 
 augmentation part      112.8520734 magnetization 

 Broyden mixing:
  rms(total) = 0.94627E-02    rms(broyden)= 0.94626E-02
  rms(prec ) = 0.99371E-02
  weight for this iteration     100.00

 eigenvalues of (default mixing * dielectric matrix)
  average eigenvalue GAMMA=   1.5388
  2.9167  2.4713  1.3174  1.0084  0.7594  0.7594

 Free energy of the ion-electron system (eV)
  ---------------------------------------------------
  alpha Z        PSCENC =       751.52672365
  Ewald energy   TEWEN  =    -22871.32574669
  -Hartree energ DENC   =     -9078.38581156
  -exchange      EXHF   =         0.00000000
  -V(xc)+E(xc)   XCENC  =      1472.53082834
  PAW double counting   =     29486.29207450   -32305.65725954
  entropy T*S    EENTRO =        -0.00000000
  eigenvalues    EBANDS =     -5211.06056370
  atomic energy  EATOM  =     37532.17946992
  Solvation  Ediel_sol  =         0.00000000
  ---------------------------------------------------
  free energy    TOTEN  =      -223.90028507 eV

  energy without entropy =     -223.90028507  energy(sigma->0) =     -223.90028507


--------------------------------------------------------------------------------------------------------




--------------------------------------- Iteration      1(  12)  ---------------------------------------


    POTLOK:  cpu time      0.0361: real time      0.0364
    SETDIJ:  cpu time      0.0300: real time      0.0301
     EDDAV:  cpu time      9.4921: real time      9.5452
       DOS:  cpu time      0.0003: real time      0.0003
    CHARGE:  cpu time      0.2680: real time      0.2696
    MIXING:  cpu time      0.0013: real time      0.0014
    --------------------------------------------
      LOOP:  cpu time      9.8278: real time      9.8830

 eigenvalue-minimisations  :  4704
 total energy-change (2. order) : 0.3501331E-04  (-0.1296790E-04)
 number of electron     448.0000022 magnetization 
 augmentation part      112.8495520 magnetization 

 Broyden mixing:
  rms(total) = 0.30813E-02    rms(broyden)= 0.30809E-02
  rms(prec ) = 0.34084E-02
  weight for this iteration     100.00

 eigenvalues of (default mixing * dielectric matrix)
  average eigenvalue GAMMA=   1.5612
  2.8808  2.3941  1.4343  1.1937  1.1937  1.0628  0.7691

 Free energy of the ion-electron system (eV)
  ---------------------------------------------------
  alpha Z        PSCENC =       751.52672365
  Ewald energy   TEWEN  =    -22871.32574669
  -Hartree energ DENC   =     -9078.26829457
  -exchange      EXHF   =         0.00000000
  -V(xc)+E(xc)   XCENC  =      1472.52307187
  PAW double counting   =     29495.62684126   -32314.99706604
  entropy T*S    EENTRO =        -0.00000000
  eigenvalues    EBANDS =     -5211.16524945
  atomic energy  EATOM  =     37532.17946992
  Solvation  Ediel_sol  =         0.00000000
  ---------------------------------------------------
  free energy    TOTEN  =      -223.90025006 eV

  energy without entropy =     -223.90025006  energy(sigma->0) =     -223.90025006


--------------------------------------------------------------------------------------------------------




--------------------------------------- Iteration      1(  13)  ---------------------------------------


    POTLOK:  cpu time      0.0365: real time      0.0375
    SETDIJ:  cpu time      0.0294: real time      0.0295
     EDDAV:  cpu time      8.2125: real time      8.2574
       DOS:  cpu time      0.0003: real time      0.0003
    CHARGE:  cpu time      0.2707: real time      0.2723
    MIXING:  cpu time      0.0013: real time      0.0013
    --------------------------------------------
      LOOP:  cpu time      8.5506: real time      8.5982

 eigenvalue-minimisations  :  3936
 total energy-change (2. order) : 0.1084500E-04  (-0.4652668E-05)
 number of electron     448.0000022 magnetization 
 augmentation part      112.8478307 magnetization 

 Broyden mixing:
  rms(total) = 0.38299E-03    rms(broyden)= 0.38197E-03
  rms(prec ) = 0.46323E-03
  weight for this iteration     100.00

 eigenvalues of (default mixing * dielectric matrix)
  average eigenvalue GAMMA=   1.5969
  2.9845  2.2748  2.2748  1.1504  1.1504  0.9646  0.9878  0.9878

 Free energy of the ion-electron system (eV)
  ---------------------------------------------------
  alpha Z        PSCENC =       751.52672365
  Ewald energy   TEWEN  =    -22871.32574669
  -Hartree energ DENC   =     -9078.13694090
  -exchange      EXHF   =         0.00000000
  -V(xc)+E(xc)   XCENC  =      1472.51122400
  PAW double counting   =     29498.84561284   -32318.22101277
  entropy T*S    EENTRO =        -0.00000000
  eigenvalues    EBANDS =     -5211.27956927
  atomic energy  EATOM  =     37532.17946992
  Solvation  Ediel_sol  =         0.00000000
  ---------------------------------------------------
  free energy    TOTEN  =      -223.90023921 eV

  energy without entropy =     -223.90023921  energy(sigma->0) =     -223.90023921


--------------------------------------------------------------------------------------------------------




--------------------------------------- Iteration      1(  14)  ---------------------------------------


    POTLOK:  cpu time      0.0356: real time      0.0358
    SETDIJ:  cpu time      0.0296: real time      0.0297
     EDDAV:  cpu time      8.9748: real time      9.0219
       DOS:  cpu time      0.0004: real time      0.0004
    CHARGE:  cpu time      0.2681: real time      0.2696
    MIXING:  cpu time      0.0015: real time      0.0015
    --------------------------------------------
      LOOP:  cpu time      9.3099: real time      9.3590

 eigenvalue-minimisations  :  4384
 total energy-change (2. order) :-0.2151093E-05  (-0.3463686E-06)
 number of electron     448.0000022 magnetization 
 augmentation part      112.8477312 magnetization 

 Broyden mixing:
  rms(total) = 0.81420E-03    rms(broyden)= 0.81416E-03
  rms(prec ) = 0.83541E-03
  weight for this iteration     100.00

 eigenvalues of (default mixing * dielectric matrix)
  average eigenvalue GAMMA=   1.6376
  3.0204  2.5999  2.5999  1.3965  1.2163  1.2163  0.9472  0.9472  0.7950

 Free energy of the ion-electron system (eV)
  ---------------------------------------------------
  alpha Z        PSCENC =       751.52672365
  Ewald energy   TEWEN  =    -22871.32574669
  -Hartree energ DENC   =     -9078.15034502
  -exchange      EXHF   =         0.00000000
  -V(xc)+E(xc)   XCENC  =      1472.51292406
  PAW double counting   =     29499.96133718   -32319.33235458
  entropy T*S    EENTRO =        -0.00000000
  eigenvalues    EBANDS =     -5211.27224988
  atomic energy  EATOM  =     37532.17946992
  Solvation  Ediel_sol  =         0.00000000
  ---------------------------------------------------
  free energy    TOTEN  =      -223.90024137 eV

  energy without entropy =     -223.90024137  energy(sigma->0) =     -223.90024137


--------------------------------------------------------------------------------------------------------




--------------------------------------- Iteration      1(  15)  ---------------------------------------


    POTLOK:  cpu time      0.0363: real time      0.0418
    SETDIJ:  cpu time      0.0299: real time      0.0300
     EDDAV:  cpu time      9.0811: real time      9.1314
       DOS:  cpu time      0.0003: real time      0.0003
    CHARGE:  cpu time      0.2686: real time      0.2700
    MIXING:  cpu time      0.0014: real time      0.0014
    --------------------------------------------
      LOOP:  cpu time      9.4175: real time      9.4749

 eigenvalue-minimisations  :  4448
 total energy-change (2. order) :-0.8756033E-06  (-0.3639131E-07)
 number of electron     448.0000022 magnetization 
 augmentation part      112.8477032 magnetization 

 Broyden mixing:
  rms(total) = 0.49300E-03    rms(broyden)= 0.49300E-03
  rms(prec ) = 0.50883E-03
  weight for this iteration     100.00

 eigenvalues of (default mixing * dielectric matrix)
  average eigenvalue GAMMA=   1.5923
  3.0459  2.5877  2.5877  1.4366  1.3060  1.3060  0.9122  0.9122  0.9142  0.9142

 Free energy of the ion-electron system (eV)
  ---------------------------------------------------
  alpha Z        PSCENC =       751.52672365
  Ewald energy   TEWEN  =    -22871.32574669
  -Hartree energ DENC   =     -9078.16847527
  -exchange      EXHF   =         0.00000000
  -V(xc)+E(xc)   XCENC  =      1472.51291334
  PAW double counting   =     29499.26748741   -32318.63441344
  entropy T*S    EENTRO =        -0.00000000
  eigenvalues    EBANDS =     -5211.25820116
  atomic energy  EATOM  =     37532.17946992
  Solvation  Ediel_sol  =         0.00000000
  ---------------------------------------------------
  free energy    TOTEN  =      -223.90024224 eV

  energy without entropy =     -223.90024224  energy(sigma->0) =     -223.90024224


--------------------------------------------------------------------------------------------------------




--------------------------------------- Iteration      1(  16)  ---------------------------------------


    POTLOK:  cpu time      0.0356: real time      0.0358
    SETDIJ:  cpu time      0.0300: real time      0.0301
     EDDAV:  cpu time      8.7460: real time      8.7946
       DOS:  cpu time      0.0003: real time      0.0003
    CHARGE:  cpu time      0.2719: real time      0.2733
    MIXING:  cpu time      0.0014: real time      0.0014
    --------------------------------------------
      LOOP:  cpu time      9.0851: real time      9.1356

 eigenvalue-minimisations  :  4256
 total energy-change (2. order) :-0.6781556E-06  (-0.2391878E-07)
 number of electron     448.0000022 magnetization 
 augmentation part      112.8478226 magnetization 

 Broyden mixing:
  rms(total) = 0.14055E-03    rms(broyden)= 0.14054E-03
  rms(prec ) = 0.14665E-03
  weight for this iteration     100.00

 eigenvalues of (default mixing * dielectric matrix)
  average eigenvalue GAMMA=   1.5969
  3.0940  2.5532  2.5532  1.5342  1.5342  1.3904  1.1243  1.1243  0.8867  0.8867
  0.8844

 Free energy of the ion-electron system (eV)
  ---------------------------------------------------
  alpha Z        PSCENC =       751.52672365
  Ewald energy   TEWEN  =    -22871.32574669
  -Hartree energ DENC   =     -9078.18101666
  -exchange      EXHF   =         0.00000000
  -V(xc)+E(xc)   XCENC  =      1472.51348362
  PAW double counting   =     29498.59572377   -32317.96084603
  entropy T*S    EENTRO =        -0.00000000
  eigenvalues    EBANDS =     -5211.24803449
  atomic energy  EATOM  =     37532.17946992
  Solvation  Ediel_sol  =         0.00000000
  ---------------------------------------------------
  free energy    TOTEN  =      -223.90024292 eV

  energy without entropy =     -223.90024292  energy(sigma->0) =     -223.90024292


--------------------------------------------------------------------------------------------------------




--------------------------------------- Iteration      1(  17)  ---------------------------------------


    POTLOK:  cpu time      0.0355: real time      0.0358
    SETDIJ:  cpu time      0.0299: real time      0.0300
     EDDAV:  cpu time      6.4758: real time      6.5107
       DOS:  cpu time      0.0002: real time      0.0002
    CHARGE:  cpu time      0.2750: real time      0.2763
    MIXING:  cpu time      0.0014: real time      0.0014
    --------------------------------------------
      LOOP:  cpu time      6.8179: real time      6.8544

 eigenvalue-minimisations  :  2848
 total energy-change (2. order) :-0.1104127E-06  (-0.1132641E-08)
 number of electron     448.0000022 magnetization 
 augmentation part      112.8478361 magnetization 

 Broyden mixing:
  rms(total) = 0.37035E-04    rms(broyden)= 0.37019E-04
  rms(prec ) = 0.45112E-04
  weight for this iteration     100.00

 eigenvalues of (default mixing * dielectric matrix)
  average eigenvalue GAMMA=   1.6042
  3.1619  2.9011  2.3585  1.7743  1.7743  1.3781  1.1467  1.1467  0.9099  0.9099
  0.9390  0.8496

 Free energy of the ion-electron system (eV)
  ---------------------------------------------------
  alpha Z        PSCENC =       751.52672365
  Ewald energy   TEWEN  =    -22871.32574669
  -Hartree energ DENC   =     -9078.18275216
  -exchange      EXHF   =         0.00000000
  -V(xc)+E(xc)   XCENC  =      1472.51345449
  PAW double counting   =     29498.34121466   -32317.70609809
  entropy T*S    EENTRO =        -0.00000000
  eigenvalues    EBANDS =     -5211.24650881
  atomic energy  EATOM  =     37532.17946992
  Solvation  Ediel_sol  =         0.00000000
  ---------------------------------------------------
  free energy    TOTEN  =      -223.90024303 eV

  energy without entropy =     -223.90024303  energy(sigma->0) =     -223.90024303


--------------------------------------------------------------------------------------------------------




--------------------------------------- Iteration      1(  18)  ---------------------------------------


    POTLOK:  cpu time      0.0356: real time      0.0358
    SETDIJ:  cpu time      0.0298: real time      0.0299
     EDDAV:  cpu time      7.3627: real time      7.4014
       DOS:  cpu time      0.0003: real time      0.0002
    CHARGE:  cpu time      0.2728: real time      0.2743
    MIXING:  cpu time      0.0015: real time      0.0015
    --------------------------------------------
      LOOP:  cpu time      7.7025: real time      7.7431

 eigenvalue-minimisations  :  3392
 total energy-change (2. order) :-0.1416192E-06  (-0.2257626E-08)
 number of electron     448.0000022 magnetization 
 augmentation part      112.8478616 magnetization 

 Broyden mixing:
  rms(total) = 0.47020E-04    rms(broyden)= 0.47006E-04
  rms(prec ) = 0.49636E-04
  weight for this iteration     100.00

 eigenvalues of (default mixing * dielectric matrix)
  average eigenvalue GAMMA=   1.5116
  3.1853  2.9292  2.3232  1.9137  1.4158  1.4158  1.1414  1.1414  0.9037  0.9037
  0.9404  0.8249  0.6119

 Free energy of the ion-electron system (eV)
  ---------------------------------------------------
  alpha Z        PSCENC =       751.52672365
  Ewald energy   TEWEN  =    -22871.32574669
  -Hartree energ DENC   =     -9078.18658650
  -exchange      EXHF   =         0.00000000
  -V(xc)+E(xc)   XCENC  =      1472.51361188
  PAW double counting   =     29498.22472667   -32317.58912429
  entropy T*S    EENTRO =        -0.00000000
  eigenvalues    EBANDS =     -5211.24331781
  atomic energy  EATOM  =     37532.17946992
  Solvation  Ediel_sol  =         0.00000000
  ---------------------------------------------------
  free energy    TOTEN  =      -223.90024317 eV

  energy without entropy =     -223.90024317  energy(sigma->0) =     -223.90024317


--------------------------------------------------------------------------------------------------------




--------------------------------------- Iteration      1(  19)  ---------------------------------------


    POTLOK:  cpu time      0.0361: real time      0.0363
    SETDIJ:  cpu time      0.0294: real time      0.0295
     EDDAV:  cpu time      5.8918: real time      5.9228
       DOS:  cpu time      0.0003: real time      0.0003
    CHARGE:  cpu time      0.2728: real time      0.2740
    MIXING:  cpu time      0.0021: real time      0.0021
    --------------------------------------------
      LOOP:  cpu time      6.2325: real time      6.2651

 eigenvalue-minimisations  :  2496
 total energy-change (2. order) : 0.3173773E-07  (-0.1017229E-08)
 number of electron     448.0000022 magnetization 
 augmentation part      112.8478577 magnetization 

 Broyden mixing:
  rms(total) = 0.30225E-04    rms(broyden)= 0.30208E-04
  rms(prec ) = 0.32192E-04
  weight for this iteration     100.00

 eigenvalues of (default mixing * dielectric matrix)
  average eigenvalue GAMMA=   1.5924
  3.3919  2.9382  2.4129  2.4129  1.3733  1.3733  1.2282  1.2282  1.2196  1.1788
  0.9979  0.8663  0.8663  0.8062

 Free energy of the ion-electron system (eV)
  ---------------------------------------------------
  alpha Z        PSCENC =       751.52672365
  Ewald energy   TEWEN  =    -22871.32574669
  -Hartree energ DENC   =     -9078.18633463
  -exchange      EXHF   =         0.00000000
  -V(xc)+E(xc)   XCENC  =      1472.51360015
  PAW double counting   =     29498.26687499   -32317.63127504
  entropy T*S    EENTRO =        -0.00000000
  eigenvalues    EBANDS =     -5211.24355550
  atomic energy  EATOM  =     37532.17946992
  Solvation  Ediel_sol  =         0.00000000
  ---------------------------------------------------
  free energy    TOTEN  =      -223.90024314 eV

  energy without entropy =     -223.90024314  energy(sigma->0) =     -223.90024314


--------------------------------------------------------------------------------------------------------




--------------------------------------- Iteration      1(  20)  ---------------------------------------


    POTLOK:  cpu time      0.0361: real time      0.0364
    SETDIJ:  cpu time      0.0299: real time      0.0301
     EDDAV:  cpu time      6.1627: real time      6.1949
       DOS:  cpu time      0.0003: real time      0.0003
    CHARGE:  cpu time      0.2696: real time      0.2711
    MIXING:  cpu time      0.0022: real time      0.0022
    --------------------------------------------
      LOOP:  cpu time      6.5008: real time      6.5350

 eigenvalue-minimisations  :  2656
 total energy-change (2. order) : 0.2900924E-07  (-0.2215692E-09)
 number of electron     448.0000022 magnetization 
 augmentation part      112.8478575 magnetization 

 Broyden mixing:
  rms(total) = 0.28274E-04    rms(broyden)= 0.28257E-04
  rms(prec ) = 0.29178E-04
  weight for this iteration     100.00

 eigenvalues of (default mixing * dielectric matrix)
  average eigenvalue GAMMA=   1.6140
  3.7637  2.9446  2.5367  2.5367  1.7922  1.3108  1.3108  1.2418  1.2418  1.0115
  1.0115  0.9096  0.9096  0.8446  0.8446

 Free energy of the ion-electron system (eV)
  ---------------------------------------------------
  alpha Z        PSCENC =       751.52672365
  Ewald energy   TEWEN  =    -22871.32574669
  -Hartree energ DENC   =     -9078.18568641
  -exchange      EXHF   =         0.00000000
  -V(xc)+E(xc)   XCENC  =      1472.51357233
  PAW double counting   =     29498.26832013   -32317.63271052
  entropy T*S    EENTRO =        -0.00000000
  eigenvalues    EBANDS =     -5211.24418552
  atomic energy  EATOM  =     37532.17946992
  Solvation  Ediel_sol  =         0.00000000
  ---------------------------------------------------
  free energy    TOTEN  =      -223.90024311 eV

  energy without entropy =     -223.90024311  energy(sigma->0) =     -223.90024311


--------------------------------------------------------------------------------------------------------




--------------------------------------- Iteration      1(  21)  ---------------------------------------


    POTLOK:  cpu time      0.0364: real time      0.0372
    SETDIJ:  cpu time      0.0300: real time      0.0301
     EDDAV:  cpu time      5.5979: real time      5.6270
       DOS:  cpu time      0.0003: real time      0.0003
    CHARGE:  cpu time      0.2714: real time      0.2729
    MIXING:  cpu time      0.0016: real time      0.0016
    --------------------------------------------
      LOOP:  cpu time      5.9375: real time      5.9690

 eigenvalue-minimisations  :  2304
 total energy-change (2. order) : 0.4986214E-07  (-0.3100841E-09)
 number of electron     448.0000022 magnetization 
 augmentation part      112.8478520 magnetization 

 Broyden mixing:
  rms(total) = 0.15738E-04    rms(broyden)= 0.15707E-04
  rms(prec ) = 0.16634E-04
  weight for this iteration     100.00

 eigenvalues of (default mixing * dielectric matrix)
  average eigenvalue GAMMA=   1.5507
  3.9412  2.9495  2.7070  2.4225  1.8242  1.1953  1.1953  1.2814  1.2814  1.0231
  1.0231  0.9198  0.9198  0.7272  0.7272  0.6724

 Free energy of the ion-electron system (eV)
  ---------------------------------------------------
  alpha Z        PSCENC =       751.52672365
  Ewald energy   TEWEN  =    -22871.32574669
  -Hartree energ DENC   =     -9078.18480194
  -exchange      EXHF   =         0.00000000
  -V(xc)+E(xc)   XCENC  =      1472.51353907
  PAW double counting   =     29498.31536095   -32317.67983796
  entropy T*S    EENTRO =        -0.00000000
  eigenvalues    EBANDS =     -5211.24495006
  atomic energy  EATOM  =     37532.17946992
  Solvation  Ediel_sol  =         0.00000000
  ---------------------------------------------------
  free energy    TOTEN  =      -223.90024306 eV

  energy without entropy =     -223.90024306  energy(sigma->0) =     -223.90024306


--------------------------------------------------------------------------------------------------------




--------------------------------------- Iteration      1(  22)  ---------------------------------------


    POTLOK:  cpu time      0.0355: real time      0.0358
    SETDIJ:  cpu time      0.0296: real time      0.0297
     EDDAV:  cpu time      5.5436: real time      5.5724
       DOS:  cpu time      0.0002: real time      0.0002
    --------------------------------------------
      LOOP:  cpu time      5.6089: real time      5.6382

 eigenvalue-minimisations  :  2272
 total energy-change (2. order) :-0.4358299E-08  (-0.1115145E-09)
 number of electron     448.0000022 magnetization 
 augmentation part      112.8478520 magnetization 

 Free energy of the ion-electron system (eV)
  ---------------------------------------------------
[...]
         0         1         2         3         4         5         6         7         8         9
 total charge-density along one line
 
 pseudopotential strength for first ion, spin component:           1
-25.385   0.000   0.000   2.509  -0.000  -0.000  -0.000  -0.001
  0.000 -25.385   0.000  -0.000   2.509  -0.000  -0.000  -0.000
  0.000   0.000 -25.385  -0.000  -0.000   2.509  -0.000  -0.000
  2.509  -0.000  -0.000   6.529   0.000   0.000   0.000  -0.000
 -0.000   2.509  -0.000   0.000   6.529   0.000   0.000  -0.000
 -0.000  -0.000   2.509   0.000   0.000   6.529  -0.000  -0.000
 -0.000  -0.000  -0.000   0.000   0.000  -0.000   1.428   6.993
 -0.001  -0.000  -0.000  -0.000  -0.000  -0.000   6.993  33.988
 total augmentation occupancy for first ion, spin component:           1
  2.002  -0.000  -0.000   0.002  -0.000  -0.000   0.001  -0.000
 -0.000   2.002  -0.000  -0.000   0.002  -0.000   0.000  -0.000
 -0.000  -0.000   2.002  -0.000  -0.000   0.002   0.000  -0.000
  0.002  -0.000  -0.000   0.017   0.000  -0.000   0.000  -0.000
 -0.000   0.002  -0.000   0.000   0.017  -0.000  -0.000   0.000
 -0.000  -0.000   0.002  -0.000  -0.000   0.017  -0.000   0.000
  0.001   0.000   0.000   0.000  -0.000  -0.000   0.403  -0.001
 -0.000  -0.000  -0.000  -0.000   0.000   0.000  -0.001   0.000


------------------------ aborting loop because EDIFF is reached ----------------------------------------


    CHARGE:  cpu time      0.2722: real time      0.2736
    FORLOC:  cpu time      0.0114: real time      0.0114
    FORNL :  cpu time      1.7322: real time      1.7421
    STRESS:  cpu time      9.6507: real time      9.6970
    FORCOR:  cpu time      0.0436: real time      0.0437
    FORHAR:  cpu time      0.0173: real time      0.0174
    MIXING:  cpu time      0.0013: real time      0.0013
    OFIELD:  cpu time      0.0000: real time      0.0000

  FORCE on cell =-STRESS in cart. coord.  units (eV):
  Direction    XX          YY          ZZ          XY          YZ          ZX
  --------------------------------------------------------------------------------------
  Alpha Z   751.52672   751.52672   751.52672
  Ewald   -7623.76815 -7623.76815 -7623.92677     0.01697     0.00000     0.00000
  Hartree  3026.07936  3026.07936  3026.02654     0.01245    -0.00000    -0.00000
  E(xc)   -2014.34812 -2014.34812 -2014.34821     0.00002     0.00000     0.00000
  Local   -2024.97208 -2024.97208 -2024.76540    -0.03007    -0.00000    -0.00000
  n-local  1887.57129  1887.68052  1887.62076     0.00002     0.00000     0.00000
  augment   687.00927   687.00927   687.00916     0.00003    -0.00010    -0.00010
  Kinetic  5310.35240  5310.69935  5310.52516     0.00097     0.00000     0.00000
  Fock        0.00000     0.00000     0.00000     0.00000     0.00000     0.00000
  -------------------------------------------------------------------------------------
  Total      -0.32122    -0.32122    -0.33204     0.00039     0.00000     0.00000
  in kB      -0.36593    -0.36593    -0.37825     0.00045     0.00000     0.00000
  external pressure =       -0.37 kB  Pullay stress =        0.00 kB


 VOLUME and BASIS-vectors are now :
 -----------------------------------------------------------------------------
  energy-cutoff  :      341.21
  volume of cell :     1406.43
      direct lattice vectors                 reciprocal lattice vectors
    11.204002360  0.000000000  0.000000000     0.089253819  0.000000000  0.000000000
     0.000000000 11.204002360  0.000000000     0.000000000  0.089253819  0.000000000
     0.000000000  0.000000000 11.204002360     0.000000000  0.000000000  0.089253819

  length of vectors
    11.204002360 11.204002360 11.204002360     0.089253819  0.089253819  0.089253819


 FORCES acting on ions
    electron-ion (+dipol)            ewald-force                    non-local-force                 convergence-correction
 -----------------------------------------------------------------------------------------------
   0.620E-01 0.113E+01 0.152E+00   -.614E-01 -.108E+01 -.145E+00   -.371E-03 -.437E-01 -.538E-02   0.149E-06 -.185E-05 0.101E-05
   -.113E+01 -.620E-01 0.152E+00   0.108E+01 0.614E-01 -.145E+00   0.437E-01 0.371E-03 -.538E-02   0.185E-05 -.149E-06 0.101E-05
   -.945E+00 0.945E+00 -.176E-11   0.903E+00 -.903E+00 0.142E-13   0.368E-01 -.368E-01 -.475E-25   0.136E-05 -.136E-05 0.136E-12
   0.218E+01 -.218E+01 0.332E-13   -.206E+01 0.206E+01 -.711E-14   -.143E+00 0.143E+00 0.598E-26   -.155E-05 0.155E-05 0.149E-12
   0.620E-01 0.113E+01 -.152E+00   -.614E-01 -.108E+01 0.145E+00   -.371E-03 -.437E-01 0.538E-02   0.149E-06 -.185E-05 -.101E-05
   -.113E+01 -.620E-01 -.152E+00   0.108E+01 0.614E-01 0.145E+00   0.437E-01 0.371E-03 0.538E-02   0.185E-05 -.149E-06 -.101E-05
   -.112E+00 0.112E+00 -.103E-11   0.109E+00 -.109E+00 0.888E-15   0.274E-02 -.274E-02 0.453E-25   0.353E-05 -.353E-05 0.103E-13
   0.151E-01 -.151E-01 0.809E-12   -.162E-01 0.162E-01 -.178E-14   0.929E-03 -.929E-03 -.977E-25   -.265E-06 0.265E-06 -.186E-13
   0.621E-01 -.468E+00 0.170E+00   -.614E-01 0.442E+00 -.162E+00   -.412E-03 0.216E-01 -.609E-02   0.148E-06 -.238E-05 0.432E-06
   0.536E-01 -.654E-01 -.167E+00   -.496E-01 0.646E-01 0.159E+00   -.330E-02 0.524E-03 0.602E-02   0.496E-05 -.293E-06 -.146E-05
   -.963E+00 -.284E+00 -.180E-10   0.920E+00 0.266E+00 0.142E-13   0.376E-01 0.150E-01 -.115E-24   0.126E-05 0.927E-06 0.153E-12
   0.151E-01 -.212E+01 0.846E-06   -.162E-01 0.200E+01 0.711E-14   0.930E-03 0.139E+00 -.626E-23   -.389E-06 0.290E-05 0.152E-12
   0.621E-01 -.468E+00 -.170E+00   -.614E-01 0.442E+00 0.162E+00   -.412E-03 0.216E-01 0.609E-02   0.148E-06 -.238E-05 -.432E-06
   0.536E-01 -.654E-01 0.167E+00   -.496E-01 0.646E-01 -.159E+00   -.330E-02 0.524E-03 -.602E-02   0.496E-05 -.293E-06 0.146E-05
   -.113E+00 -.967E-01 -.101E-11   0.110E+00 0.931E-01 0.178E-14   0.274E-02 0.296E-02 0.107E-25   0.294E-05 0.375E-05 0.155E-13
   0.160E-02 -.175E-01 -.529E-08   -.163E-02 0.185E-01 0.178E-14   0.229E-04 -.851E-03 0.217E-25   0.138E-06 -.269E-06 -.418E-14
   0.654E-01 -.536E-01 -.167E+00   -.646E-01 0.496E-01 0.159E+00   -.524E-03 0.330E-02 0.602E-02   0.293E-06 -.496E-05 -.146E-05
   0.468E+00 -.621E-01 0.170E+00   -.442E+00 0.614E-01 -.162E+00   -.216E-01 0.412E-03 -.609E-02   0.238E-05 -.148E-06 0.432E-06
   0.284E+00 0.963E+00 0.158E-10   -.266E+00 -.920E+00 0.142E-13   -.150E-01 -.376E-01 -.843E-25   -.927E-06 -.126E-05 0.139E-12
   0.212E+01 -.151E-01 -.846E-06   -.200E+01 0.162E-01 0.711E-14   -.139E+00 -.930E-03 -.473E-23   -.290E-05 0.389E-06 0.120E-12
   0.654E-01 -.536E-01 0.167E+00   -.646E-01 0.496E-01 -.159E+00   -.524E-03 0.330E-02 -.602E-02   0.293E-06 -.496E-05 0.146E-05
   0.468E+00 -.621E-01 -.170E+00   -.442E+00 0.614E-01 0.162E+00   -.216E-01 0.412E-03 0.609E-02   0.238E-05 -.148E-06 -.432E-06
   0.967E-01 0.113E+00 -.296E-11   -.931E-01 -.110E+00 0.178E-14   -.296E-02 -.274E-02 0.104E-25   -.375E-05 -.294E-05 -.135E-13
   0.175E-01 -.160E-02 0.529E-08   -.185E-01 0.163E-02 -.533E-14   0.851E-03 -.229E-04 0.254E-25   0.269E-06 -.138E-06 0.354E-14
   0.654E-01 0.693E-01 -.166E+00   -.646E-01 -.656E-01 0.159E+00   -.500E-03 -.308E-02 0.601E-02   0.290E-06 0.543E-05 -.127E-05
   -.693E-01 -.654E-01 -.166E+00   0.656E-01 0.646E-01 0.159E+00   0.308E-02 0.500E-03 0.601E-02   -.543E-05 -.290E-06 -.127E-05
   0.301E+00 -.301E+00 -.926E-12   -.283E+00 0.283E+00 0.142E-13   -.156E-01 0.156E-01 -.190E-25   -.869E-06 0.869E-06 0.135E-12
   0.175E-01 -.175E-01 -.964E-12   -.185E-01 0.185E-01 0.711E-14   0.847E-03 -.847E-03 0.125E-26   0.209E-07 -.209E-07 0.131E-12
   0.654E-01 0.693E-01 0.166E+00   -.646E-01 -.656E-01 -.159E+00   -.500E-03 -.308E-02 -.601E-02   0.290E-06 0.543E-05 0.127E-05
   -.693E-01 -.654E-01 0.166E+00   0.656E-01 0.646E-01 -.159E+00   0.308E-02 0.500E-03 -.601E-02   -.543E-05 -.290E-06 0.127E-05
   0.974E-01 -.974E-01 -.414E-11   -.937E-01 0.937E-01 0.000E+00   -.296E-02 0.296E-02 -.256E-25   -.278E-05 0.278E-05 -.114E-13
   0.275E-02 -.275E-02 0.318E-11   -.273E-02 0.273E-02 -.533E-14   -.214E-04 0.214E-04 -.195E-25   0.182E-06 -.182E-06 0.573E-14
   -.451E+01 -.261E+00 0.377E-05   0.446E+01 0.256E+00 0.213E-13   0.136E+00 0.969E-02 0.189E-22   -.245E-05 -.733E-06 0.146E-12
   0.261E+00 0.451E+01 -.377E-05   -.256E+00 -.446E+01 -.266E-14   -.969E-02 -.136E+00 -.146E-22   0.733E-06 0.245E-05 0.160E-12
   0.252E+00 -.252E+00 0.974E+00   -.247E+00 0.247E+00 -.957E+00   -.927E-02 0.927E-02 -.280E-01   0.112E-06 -.112E-06 0.322E-05
   -.309E+00 0.309E+00 -.528E-02   0.305E+00 -.305E+00 0.519E-02   0.581E-02 -.581E-02 0.156E-03   0.106E-05 -.106E-05 0.449E-06
   -.206E+00 -.701E-02 0.795E-09   0.203E+00 0.709E-02 -.169E-13   0.536E-02 -.128E-03 -.152E-24   -.828E-09 -.103E-06 0.256E-13
   0.701E-02 0.206E+00 -.796E-09   -.709E-02 -.203E+00 -.124E-13   0.128E-03 -.536E-02 -.182E-24   0.103E-06 0.828E-09 0.173E-13
   0.252E+00 -.252E+00 -.974E+00   -.247E+00 0.247E+00 0.957E+00   -.927E-02 0.927E-02 0.280E-01   0.112E-06 -.112E-06 -.322E-05
   -.309E+00 0.309E+00 0.528E-02   0.305E+00 -.305E+00 -.519E-02   0.581E-02 -.581E-02 -.156E-03   0.106E-05 -.106E-05 -.449E-06
   0.312E+00 -.256E+00 0.810E-10   -.307E+00 0.250E+00 -.133E-13   -.982E-02 0.922E-02 -.250E-24   0.153E-05 0.257E-06 0.150E-12
   0.252E+00 -.101E+01 0.852E-06   -.247E+00 0.995E+00 -.107E-13   -.931E-02 0.236E-01 0.185E-24   -.841E-06 -.153E-05 0.155E-12
   0.702E-02 -.256E+00 -.438E+00   -.709E-02 0.250E+00 0.431E+00   0.125E-03 0.921E-02 0.123E-01   -.482E-06 -.124E-06 0.799E-06
   -.312E+00 -.173E+00 -.184E-02   0.309E+00 0.171E+00 0.182E-02   0.589E-02 0.386E-02 0.474E-04   0.154E-05 0.163E-05 0.171E-06
   -.283E-01 -.872E-02 0.410E-12   0.284E-01 0.877E-02 -.151E-13   -.107E-03 -.812E-04 -.166E-24   0.740E-05 -.131E-06 0.307E-13
   0.702E-02 -.171E+00 -.796E-09   -.709E-02 0.167E+00 -.107E-13   0.122E-03 0.640E-02 -.277E-24   0.688E-07 0.148E-05 0.128E-13
   0.702E-02 -.256E+00 0.438E+00   -.709E-02 0.250E+00 -.431E+00   0.125E-03 0.921E-02 -.123E-01   -.482E-06 -.124E-06 -.799E-06
   -.312E+00 -.173E+00 0.184E-02   0.309E+00 0.171E+00 -.182E-02   0.589E-02 0.386E-02 -.474E-04   0.154E-05 0.163E-05 -.171E-06
   0.101E+01 -.252E+00 -.852E-06   -.995E+00 0.247E+00 -.107E-13   -.236E-01 0.931E-02 0.117E-24   0.153E-05 0.841E-06 0.169E-12
   0.256E+00 -.312E+00 -.879E-10   -.250E+00 0.307E+00 -.124E-13   -.922E-02 0.982E-02 0.126E-24   -.257E-06 -.153E-05 0.149E-12
   0.256E+00 -.702E-02 -.438E+00   -.250E+00 0.709E-02 0.431E+00   -.921E-02 -.125E-03 0.123E-01   0.124E-06 0.482E-06 0.799E-06
   0.173E+00 0.312E+00 -.184E-02   -.171E+00 -.309E+00 0.182E-02   -.386E-02 -.589E-02 0.474E-04   -.163E-05 -.154E-05 0.171E-06
   0.171E+00 -.702E-02 0.792E-09   -.167E+00 0.709E-02 -.107E-13   -.640E-02 -.122E-03 0.456E-24   -.148E-05 -.688E-07 0.208E-13
   0.872E-02 0.283E-01 0.361E-11   -.877E-02 -.284E-01 -.178E-14   0.812E-04 0.107E-03 -.164E-24   0.131E-06 -.740E-05 0.315E-13
   0.256E+00 -.702E-02 0.438E+00   -.250E+00 0.709E-02 -.431E+00   -.921E-02 -.125E-03 -.123E-01   0.124E-06 0.482E-06 -.799E-06
   0.173E+00 0.312E+00 0.184E-02   -.171E+00 -.309E+00 -.182E-02   -.386E-02 -.589E-02 -.474E-04   -.163E-05 -.154E-05 -.171E-06
   -.347E+00 -.256E+00 0.106E-09   0.342E+00 0.250E+00 -.107E-13   0.878E-02 0.920E-02 -.800E-25   -.140E-05 -.536E-06 0.161E-12
   0.256E+00 0.347E+00 -.107E-09   -.250E+00 -.342E+00 -.107E-13   -.920E-02 -.878E-02 0.535E-24   0.536E-06 0.140E-05 0.148E-12
   0.872E-02 -.872E-02 -.798E-01   -.877E-02 0.877E-02 0.781E-01   0.844E-04 -.844E-04 0.286E-02   0.437E-06 -.437E-06 -.396E-05
   0.176E+00 -.176E+00 0.156E-02   -.174E+00 0.174E+00 -.155E-02   -.392E-02 0.392E-02 -.162E-04   -.271E-05 0.271E-05 0.493E-06
   0.239E-01 -.871E-02 -.289E-11   -.240E-01 0.877E-02 -.355E-14   0.805E-04 -.899E-04 0.246E-24   -.787E-05 -.485E-06 0.228E-13
   0.871E-02 -.239E-01 -.133E-12   -.877E-02 0.240E-01 -.355E-14   0.899E-04 -.805E-04 0.274E-24   0.485E-06 0.787E-05 0.329E-13
   0.872E-02 -.872E-02 0.798E-01   -.877E-02 0.877E-02 -.781E-01   0.844E-04 -.844E-04 -.286E-02   0.437E-06 -.437E-06 0.396E-05
   0.176E+00 -.176E+00 -.156E-02   -.174E+00 0.174E+00 0.155E-02   -.392E-02 0.392E-02 0.162E-04   -.271E-05 0.271E-05 -.493E-06
 -----------------------------------------------------------------------------------------------
   0.150E+00 -.150E+00 -.251E-10   -.240E-13 -.158E-13 -.427E-13   -.150E+00 0.150E+00 0.423E-17   0.672E-06 -.672E-06 -.146E-11
 
 
 POSITION                                       TOTAL-FORCE (eV/Angst)
 -----------------------------------------------------------------------------------
      0.00000      0.00000      0.00000         0.000205      0.006304      0.001399
      2.80100      2.80100      0.00000        -0.006304     -0.000205      0.001399
      2.80100      0.00000      2.80100        -0.005087      0.005087     -0.000000
      0.00000      2.80100      2.80100        -0.020283      0.020283     -0.000000
      0.00000      0.00000      5.60200         0.000205      0.006304     -0.001399
      2.80100      2.80100      5.60200        -0.006304     -0.000205     -0.001399
      2.80100      0.00000      8.40300        -0.000609      0.000609     -0.000000
      0.00000      2.80100      8.40300        -0.000167      0.000167     -0.000000
      0.00000      5.60200      0.00000         0.000216     -0.004129      0.001302
      2.80100      8.40300      0.00000         0.000682     -0.000238     -0.001288
      2.80100      5.60200      2.80100        -0.005014     -0.002949     -0.000000
      0.00000      8.40300      2.80100        -0.000169      0.016220     -0.000000
      0.00000      5.60200      5.60200         0.000216     -0.004129     -0.001302
      2.80100      8.40300      5.60200         0.000682     -0.000238      0.001288
      2.80100      5.60200      8.40300        -0.000609     -0.000671     -0.000000
      0.00000      8.40300      8.40300        -0.000006      0.000152     -0.000000
      5.60200      0.00000      0.00000         0.000238     -0.000682     -0.001288
      8.40300      2.80100      0.00000         0.004129     -0.000216      0.001302
      8.40300      0.00000      2.80100         0.002949      0.005014     -0.000000
      5.60200      2.80100      2.80100        -0.016220      0.000169     -0.000000
      5.60200      0.00000      5.60200         0.000238     -0.000682      0.001288
      8.40300      2.80100      5.60200         0.004129     -0.000216     -0.001302
      8.40300      0.00000      8.40300         0.000671      0.000609     -0.000000
      5.60200      2.80100      8.40300        -0.000152      0.000006     -0.000000
      5.60200      5.60200      0.00000         0.000234      0.000620     -0.001286
      8.40300      8.40300      0.00000        -0.000620     -0.000234     -0.001286
      8.40300      5.60200      2.80100         0.002835     -0.002835     -0.000000
      5.60200      8.40300      2.80100        -0.000151      0.000151     -0.000000
      5.60200      5.60200      5.60200         0.000234      0.000620      0.001286
      8.40300      8.40300      5.60200        -0.000620     -0.000234      0.001286
      8.40300      5.60200      8.40300         0.000672     -0.000672     -0.000000
      5.60200      8.40300      8.40300         0.000004     -0.000004     -0.000000
      2.77100      2.80100      2.80100         0.082085      0.004107     -0.000000
      0.00000      0.03000      2.80100        -0.004107     -0.082085     -0.000000
      0.00000      2.80100      0.00000        -0.003907      0.003907     -0.011734
      2.80100      0.00000      0.00000         0.002302     -0.002302      0.000065
      2.80100      2.80100      8.40300         0.002122     -0.000054     -0.000000
      0.00000      0.00000      8.40300         0.000054     -0.002122     -0.000000
      0.00000      2.80100      5.60200        -0.003907      0.003907      0.011734
      2.80100      0.00000      5.60200         0.002302     -0.002302     -0.000065
      2.80100      8.40300      2.80100        -0.004185      0.003862     -0.000000
      0.00000      5.60200      2.80100        -0.003919      0.009716     -0.000000
      0.00000      8.40300      0.00000         0.000054      0.003859      0.005159
      2.80100      5.60200      0.00000         0.002338      0.001520      0.000020
      2.80100      8.40300      8.40300        -0.000048     -0.000036     -0.000000
      0.00000      5.60200      8.40300         0.000052      0.002531     -0.000000
      0.00000      8.40300      5.60200         0.000054      0.003859     -0.005159
      2.80100      5.60200      5.60200         0.002338      0.001520     -0.000020
      8.40300      2.80100      2.80100        -0.009716      0.003919     -0.000000
      5.60200      0.00000      2.80100        -0.003862      0.004185     -0.000000
      5.60200      2.80100      0.00000        -0.003859     -0.000054      0.005159
      8.40300      0.00000      0.00000        -0.001520     -0.002338      0.000020
      8.40300      2.80100      8.40300        -0.002531     -0.000052     -0.000000
      5.60200      0.00000      8.40300         0.000036      0.000048     -0.000000
      5.60200      2.80100      5.60200        -0.003859     -0.000054     -0.005159
      8.40300      0.00000      5.60200        -0.001520     -0.002338     -0.000020
      8.40300      8.40300      2.80100         0.003775      0.003855     -0.000000
      5.60200      5.60200      2.80100        -0.003855     -0.003775     -0.000000
      5.60200      8.40300      0.00000         0.000037     -0.000037      0.001135
      8.40300      5.60200      0.00000        -0.001548      0.001548     -0.000007
      8.40300      8.40300      8.40300         0.000040     -0.000038     -0.000000
      5.60200      5.60200      8.40300         0.000038     -0.000040     -0.000000
      5.60200      8.40300      5.60200         0.000037     -0.000037     -0.001135
      8.40300      5.60200      5.60200        -0.001548      0.001548      0.000007
 -----------------------------------------------------------------------------------
    total drift:                               -0.000198      0.000198     -0.000000


--------------------------------------------------------------------------------------------------------



  FREE ENERGIE OF THE ION-ELECTRON SYSTEM (eV)
  ---------------------------------------------------
  free  energy   TOTEN  =      -223.90024306 eV

  energy  without entropy=     -223.90024306  energy(sigma->0) =     -223.90024306
 


--------------------------------------------------------------------------------------------------------


    POTLOK:  cpu time      0.0687: real time      0.0690


--------------------------------------------------------------------------------------------------------


     LOOP+:  cpu time    193.7862: real time    194.8692
    4ORBIT:  cpu time      0.0000: real time      0.0000

 total amount of memory used by VASP MPI-rank0   118439. kBytes
=======================================================================

   base      :      30000. kBytes
   nonl-proj :      36470. kBytes
   fftplans  :      14405. kBytes
   grid      :      19342. kBytes
   one-center:        196. kBytes
   wavefun   :      18026. kBytes
 
  
  
 General timing and accounting informations for this job:
 ========================================================
  
                  Total CPU time used (sec):      197.226
                            User time (sec):      196.684
                          System time (sec):        0.542
                         Elapsed time (sec):      198.739
  
                   Maximum memory used (kb):      308280.
                   Average memory used (kb):          N/A
  
                          Minor page faults:       111108
                          Major page faults:            0
                 Voluntary context switches:          883
