<?xml version="1.0" encoding="ISO-8859-1"?>
<modeling>
 <generator>
  <i name="program" type="string">vasp </i>
  <i name="version" type="string">6.3.2  </i>
  <i name="subversion" type="string">27Jun22 (build Oct 14 2022 12:13:54) complex                          parallel </i>
  <i name="platform" type="string">LinuxIFC </i>
  <i name="date" type="string">2025 08 28 </i>
  <i name="time" type="string">22:11:17 </i>
 </generator>
 <incar>
  <i type="string" name="PREC">Accurate</i>
  <i type="int" name="IALGO">    38</i>
  <i type="logical" name="ADDGRID"> T  </i>
  <i type="int" name="NELMIN">     5</i>
  <i type="int" name="IBRION">    -1</i>
  <i name="EDIFF">      0.00000001</i>
  <i name="ENCUT">    341.21360000</i>
  <i type="logical" name="LREAL"> F  </i>
  <i type="int" name="ISMEAR">     0</i>
  <i name="SIGMA">      0.02000000</i>
  <i type="logical" name="LWAVE"> F  </i>
  <i type="logical" name="LCHARG"> F  </i>
  <i type="string" name="GGA">PS</i>
 </incar>
 <primitive_cell>
  <structure name="primitive_cell" >
   <crystal>
    <varray name="basis" >
     <v>      11.20400236       0.00000000       0.00000000 </v>
     <v>       0.00000000      11.20400236       0.00000000 </v>
     <v>       0.00000000       0.00000000      11.20400236 </v>
    </varray>
    <i name="volume">   1406.43470641 </i>
    <varray name="rec_basis" >
     <v>       0.08925382       0.00000000       0.00000000 </v>
     <v>       0.00000000       0.08925382       0.00000000 </v>
     <v>       0.00000000       0.00000000       0.08925382 </v>
    </varray>
   </crystal>
   <varray name="positions" >
    <v>       0.00000000       0.00000000       0.00000000 </v>
    <v>       0.25000000       0.25000000       0.00000000 </v>
    <v>       0.25000000       0.00000000       0.25000000 </v>
    <v>       0.00000000       0.25000000       0.25000000 </v>
    <v>       0.00000000       0.00000000       0.50000000 </v>
    <v>       0.25000000       0.25000000       0.50000000 </v>
    <v>       0.25000000       0.00000000       0.75000000 </v>
    <v>       0.00000000       0.25000000       0.75000000 </v>
    <v>       0.00000000       0.50000000       0.00000000 </v>
    <v>       0.25000000       0.75000000       0.00000000 </v>
    <v>       0.25000000       0.50000000       0.25000000 </v>
    <v>       0.00000000       0.75000000       0.25000000 </v>
    <v>       0.00000000       0.50000000       0.50000000 </v>
    <v>       0.25000000       0.75000000       0.50000000 </v>
    <v>       0.25000000       0.50000000       0.75000000 </v>
    <v>       0.00000000       0.75000000       0.75000000 </v>
    <v>       0.50000000       0.00000000       0.00000000 </v>
    <v>       0.75000000       0.25000000       0.00000000 </v>
    <v>       0.75000000       0.00000000       0.25000000 </v>
    <v>       0.50000000       0.25000000       0.25000000 </v>
    <v>       0.50000000       0.00000000       0.50000000 </v>
    <v>       0.75000000       0.25000000       0.50000000 </v>
    <v>       0.75000000       0.00000000       0.75000000 </v>
    <v>       0.50000000       0.25000000       0.75000000 </v>
    <v>       0.50000000       0.50000000       0.00000000 </v>
    <v>       0.75000000       0.75000000       0.00000000 </v>
    <v>       0.75000000       0.50000000       0.25000000 </v>
    <v>       0.50000000       0.75000000       0.25000000 </v>
    <v>       0.50000000       0.50000000       0.50000000 </v>
    <v>       0.75000000       0.75000000       0.50000000 </v>
    <v>       0.75000000       0.50000000       0.75000000 </v>
    <v>       0.50000000       0.75000000       0.75000000 </v>
    <v>       0.24732239       0.25000000       0.25000000 </v>
    <v>       0.00000000       0.00267761       0.25000000 </v>
    <v>       0.00000000       0.25000000       0.00000000 </v>
    <v>       0.25000000       0.00000000       0.00000000 </v>
    <v>       0.25000000       0.25000000       0.75000000 </v>
    <v>       0.00000000       0.00000000       0.75000000 </v>
    <v>       0.00000000       0.25000000       0.50000000 </v>
    <v>       0.25000000       0.00000000       0.50000000 </v>
    <v>       0.25000000       0.75000000       0.25000000 </v>
    <v>       0.00000000       0.50000000       0.25000000 </v>
    <v>       0.00000000       0.75000000       0.00000000 </v>
    <v>       0.25000000       0.50000000       0.00000000 </v>
    <v>       0.25000000       0.75000000       0.75000000 </v>
    <v>       0.00000000       0.50000000       0.75000000 </v>
    <v>       0.00000000       0.75000000       0.50000000 </v>
    <v>       0.25000000       0.50000000       0.50000000 </v>
    <v>       0.75000000       0.25000000       0.25000000 </v>
    <v>       0.50000000       0.00000000       0.25000000 </v>
    <v>       0.50000000       0.25000000       0.00000000 </v>
    <v>       0.75000000       0.00000000       0.00000000 </v>
    <v>       0.75000000       0.25000000       0.75000000 </v>
    <v>       0.50000000       0.00000000       0.75000000 </v>
    <v>       0.50000000       0.25000000       0.50000000 </v>
    <v>       0.75000000       0.00000000       0.50000000 </v>
    <v>       0.75000000       0.75000000       0.25000000 </v>
    <v>       0.50000000       0.50000000       0.25000000 </v>
    <v>       0.50000000       0.75000000       0.00000000 </v>
    <v>       0.75000000       0.50000000       0.00000000 </v>
    <v>       0.75000000       0.75000000       0.75000000 </v>
    <v>       0.50000000       0.50000000       0.75000000 </v>
    <v>       0.50000000       0.75000000       0.50000000 </v>
    <v>       0.75000000       0.50000000       0.50000000 </v>
   </varray>
  </structure>
  <varray name="primitive_index" >
   <v type="int" >        1 </v>
   <v type="int" >        2 </v>
   <v type="int" >        3 </v>
   <v type="int" >        4 </v>
   <v type="int" >        5 </v>
   <v type="int" >        6 </v>
   <v type="int" >        7 </v>
   <v type="int" >        8 </v>
   <v type="int" >        9 </v>
   <v type="int" >       10 </v>
   <v type="int" >       11 </v>
   <v type="int" >       12 </v>
   <v type="int" >       13 </v>
   <v type="int" >       14 </v>
   <v type="int" >       15 </v>
   <v type="int" >       16 </v>
   <v type="int" >       17 </v>
   <v type="int" >       18 </v>
   <v type="int" >       19 </v>
   <v type="int" >       20 </v>
   <v type="int" >       21 </v>
   <v type="int" >       22 </v>
   <v type="int" >       23 </v>
   <v type="int" >       24 </v>
   <v type="int" >       25 </v>
   <v type="int" >       26 </v>
   <v type="int" >       27 </v>
   <v type="int" >       28 </v>
   <v type="int" >       29 </v>
   <v type="int" >       30 </v>
   <v type="int" >       31 </v>
   <v type="int" >       32 </v>
   <v type="int" >       33 </v>
   <v type="int" >       34 </v>
   <v type="int" >       35 </v>
   <v type="int" >       36 </v>
   <v type="int" >       37 </v>
   <v type="int" >       38 </v>
   <v type="int" >       39 </v>
   <v type="int" >       40 </v>
   <v type="int" >       41 </v>
   <v type="int" >       42 </v>
   <v type="int" >       43 </v>
   <v type="int" >       44 </v>
   <v type="int" >       45 </v>
   <v type="int" >       46 </v>
   <v type="int" >       47 </v>
   <v type="int" >       48 </v>
   <v type="int" >       49 </v>
   <v type="int" >       50 </v>
   <v type="int" >       51 </v>
   <v type="int" >       52 </v>
   <v type="int" >       53 </v>
   <v type="int" >       54 </v>
   <v type="int" >       55 </v>
   <v type="int" >       56 </v>
   <v type="int" >       57 </v>
   <v type="int" >       58 </v>
   <v type="int" >       59 </v>
   <v type="int" >       60 </v>
   <v type="int" >       61 </v>
   <v type="int" >       62 </v>
   <v type="int" >       63 </v>
   <v type="int" >       64 </v>
  </varray>
 </primitive_cell>
 <kpoints>
  <generation param="Gamma">
   <v type="int" name="divisions">       2        2        2 </v>
   <v name="usershift">      0.00000000       0.00000000       0.00000000 </v>
   <v name="genvec1">      0.50000000       0.00000000       0.00000000 </v>
   <v name="genvec2">      0.00000000       0.50000000       0.00000000 </v>
   <v name="genvec3">      0.00000000       0.00000000       0.50000000 </v>
   <v name="shift">      0.00000000       0.00000000       0.00000000 </v>
  </generation>
  <varray name="kpointlist" >
   <v>       0.00000000       0.00000000       0.00000000 </v>
   <v>       0.50000000       0.00000000       0.00000000 </v>
   <v>       0.00000000       0.00000000       0.50000000 </v>
   <v>       0.50000000       0.50000000       0.00000000 </v>
   <v>       0.00000000       0.50000000       0.50000000 </v>
   <v>       0.50000000       0.50000000       0.50000000 </v>
  </varray>
  <varray name="weights" >
   <v>       0.12500000 </v>
   <v>       0.25000000 </v>
   <v>       0.12500000 </v>
   <v>       0.12500000 </v>
   <v>       0.25000000 </v>
   <v>       0.12500000 </v>
  </varray>
 </kpoints>
 <parameters>
  <separator name="general" >
   <i type="string" name="SYSTEM">unknown system</i>
   <i type="logical" name="LCOMPAT"> F  </i>
  </separator>
  <separator name="electronic" >
   <i type="string" name="PREC">accura</i>
   <i name="ENMAX">    341.21360000</i>
   <i name="ENAUG">    368.05600000</i>
   <i name="EDIFF">      0.00000001</i>
   <i type="int" name="IALGO">    38</i>
   <i type="int" name="IWAVPR">    10</i>
   <i type="int" name="NBANDS">   288</i>
   <i type="int" name="NBANDSLOW">    -1</i>
   <i type="int" name="NBANDSHIGH">    -1</i>
   <i name="NELECT">    448.00000000</i>
   <i type="int" name="TURBO">     0</i>
   <i type="int" name="IRESTART">     0</i>
   <i type="int" name="NREBOOT">     0</i>
   <i type="int" name="NMIN">     0</i>
   <i name="EREF">      0.00000000</i>
   <separator name="electronic smearing" >
    <i type="int" name="ISMEAR">     0</i>
    <i name="SIGMA">      0.02000000</i>
    <i name="KSPACING">      0.50000000</i>
    <i type="logical" name="KGAMMA"> T  </i>
    <i type="logical" name="KBLOWUP"> T  </i>
   </separator>
   <separator name="electronic projectors" >
    <i type="logical" name="LREAL"> F  </i>
    <v name="ROPT">      0.00000000      0.00000000</v>
    <i type="int" name="LMAXPAW">  -100</i>
    <i type="int" name="LMAXMIX">     2</i>
    <i type="logical" name="NLSPLINE"> F  </i>
   </separator>
   <separator name="electronic startup" >
    <i type="int" name="ISTART">     0</i>
    <i type="int" name="ICHARG">     2</i>
    <i type="int" name="INIWAV">     1</i>
   </separator>
   <separator name="electronic spin" >
    <i type="int" name="ISPIN">     1</i>
    <i type="logical" name="LNONCOLLINEAR"> F  </i>
    <v name="MAGMOM">      1.00000000      1.00000000      1.00000000      1.00000000      1.00000000      1.00000000      1.00000000      1.00000000      1.00000000      1.00000000      1.00000000      1.00000000      1.00000000      1.00000000      1.00000000      1.00000000      1.00000000      1.00000000      1.00000000      1.00000000
      1.00000000      1.00000000      1.00000000      1.00000000      1.00000000      1.00000000      1.00000000      1.00000000      1.00000000      1.00000000      1.00000000      1.00000000      1.00000000      1.00000000      1.00000000      1.00000000      1.00000000      1.00000000      1.00000000      1.00000000
      1.00000000      1.00000000      1.00000000      1.00000000      1.00000000      1.00000000      1.00000000      1.00000000      1.00000000      1.00000000      1.00000000      1.00000000      1.00000000      1.00000000      1.00000000      1.00000000      1.00000000      1.00000000      1.00000000      1.00000000
      1.00000000      1.00000000      1.00000000      1.00000000</v>
    <i name="NUPDOWN">     -1.00000000</i>
    <i type="logical" name="LSORBIT"> F  </i>
    <v name="SAXIS">      0.00000000      0.00000000      1.00000000</v>
    <i type="logical" name="LSPIRAL"> F  </i>
    <v name="QSPIRAL">      0.00000000      0.00000000      0.00000000</v>
    <i type="logical" name="LZEROZ"> F  </i>
   </separator>
   <separator name="electronic exchange-correlation" >
    <i type="logical" name="LASPH"> F  </i>
    <i type="logical" name="LMETAGGA"> F  </i>
   </separator>
   <separator name="electronic convergence" >
    <i type="int" name="NELM">    60</i>
    <i type="int" name="NELMDL">    -5</i>
    <i type="int" name="NELMIN">     5</i>
    <i name="ENINI">    341.21360000</i>
    <separator name="electronic convergence detail" >
     <i type="logical" name="LDIAG"> T  </i>
     <i type="logical" name="LSUBROT"> F  </i>
     <i name="WEIMIN">      0.00000000</i>
     <i name="EBREAK">      0.00000000</i>
     <i name="DEPER">      0.30000000</i>
     <i type="int" name="NRMM">     4</i>
     <i name="TIME">      0.40000000</i>
    </separator>
   </separator>
   <separator name="electronic mixer" >
    <i name="AMIX">      0.40000000</i>
    <i name="BMIX">      1.00000000</i>
    <i name="AMIN">      0.10000000</i>
    <i name="AMIX_MAG">      1.60000000</i>
    <i name="BMIX_MAG">      1.00000000</i>
    <separator name="electronic mixer details" >
     <i type="int" name="IMIX">     4</i>
     <i type="logical" name="MIXFIRST"> F  </i>
     <i type="int" name="MAXMIX">   -45</i>
     <i name="WC">    100.00000000</i>
     <i type="int" name="INIMIX">     1</i>
     <i type="int" name="MIXPRE">     1</i>
     <i type="int" name="MREMOVE">     5</i>
    </separator>
   </separator>
   <separator name="electronic dipolcorrection" >
    <i type="logical" name="LDIPOL"> F  </i>
    <i type="logical" name="LMONO"> F  </i>
    <i type="int" name="IDIPOL">     0</i>
    <i name="EPSILON">      1.00000000</i>
    <v name="DIPOL">   -100.00000000   -100.00000000   -100.00000000</v>
    <i name="EFIELD">      0.00000000</i>
   </separator>
  </separator>
  <separator name="grids" >
   <i type="int" name="NGX">    70</i>
   <i type="int" name="NGY">    70</i>
   <i type="int" name="NGZ">    70</i>
   <i type="int" name="NGXF">   140</i>
   <i type="int" name="NGYF">   140</i>
   <i type="int" name="NGZF">   140</i>
   <i type="logical" name="ADDGRID"> T  </i>
  </separator>
  <separator name="ionic" >
   <i type="int" name="NSW">     0</i>
   <i type="int" name="IBRION">    -1</i>
   <i type="int" name="MDALGO">     0</i>
   <i type="int" name="ISIF">     2</i>
   <i name="PSTRESS">      0.00000000</i>
   <i name="EDIFFG">      0.00000010</i>
   <i type="int" name="NFREE">     0</i>
   <i name="POTIM">      0.50000000</i>
   <i name="SMASS">     -3.00000000</i>
   <i name="SCALEE">      1.00000000</i>
  </separator>
  <separator name="ionic md" >
   <i name="TEBEG">      0.00010000</i>
   <i name="TEEND">      0.00010000</i>
   <i type="int" name="NBLOCK">     1</i>
   <i type="int" name="KBLOCK">     1</i>
   <i type="int" name="NPACO">   256</i>
   <i name="APACO">     10.00000000</i>
  </separator>
  <separator name="symmetry" >
   <i type="int" name="ISYM">     2</i>
   <i name="SYMPREC">      0.00001000</i>
  </separator>
  <separator name="dos" >
   <i type="int" name="LORBIT">     0</i>
   <v name="RWIGS">     -1.00000000     -1.00000000</v>
   <i type="int" name="NEDOS">   301</i>
   <i name="EMIN">     10.00000000</i>
   <i name="EMAX">    -10.00000000</i>
   <i name="EFERMI">      0.00000000</i>
  </separator>
  <separator name="writing" >
   <i type="int" name="NWRITE">     2</i>
   <i type="logical" name="LWAVE"> F  </i>
   <i type="logical" name="LDOWNSAMPLE"> F  </i>
   <i type="logical" name="LCHARG"> F  </i>
   <i type="logical" name="LPARD"> F  </i>
   <i type="logical" name="LVTOT"> F  </i>
   <i type="logical" name="LVHAR"> F  </i>
   <i type="logical" name="LELF"> F  </i>
   <i type="logical" name="LOPTICS"> F  </i>
   <v name="STM">      0.00000000      0.00000000      0.00000000      0.00000000      0.00000000      0.00000000      0.00000000</v>
  </separator>
  <separator name="performance" >
   <i type="int" name="NPAR">    32</i>
   <i type="int" name="NSIM">     4</i>
   <i type="int" name="NBLK">    -1</i>
   <i type="logical" name="LPLANE"> T  </i>
   <i type="logical" name="LSCALAPACK"> T  </i>
   <i type="logical" name="LSCAAWARE"> F  </i>
   <i type="logical" name="LSCALU"> F  </i>
   <i type="logical" name="LASYNC"> F  </i>
   <i type="logical" name="LORBITALREAL"> F  </i>
  </separator>
  <separator name="miscellaneous" >
   <i type="int" name="IDIOT">     3</i>
   <i type="int" name="PHON_NSTRUCT">    -1</i>
   <i type="logical" name="LMUSIC"> F  </i>
   <v name="POMASS">     22.99000000     35.45300000</v>
   <v name="DARWINR">      0.00000000      0.00000000</v>
   <v name="DARWINV">      1.00000000      1.00000000</v>
   <i type="logical" name="LCORR"> T  </i>
  </separator>
  <i type="logical" name="GGA_COMPAT"> T  </i>
  <i type="logical" name="LBERRY"> F  </i>
  <i type="int" name="ICORELEVEL">     0</i>
  <i type="logical" name="LDAU"> F  </i>
  <i type="int" name="I_CONSTRAINED_M">     0</i>
  <separator name="electronic exchange-correlation" >
   <i type="string" name="GGA">PS</i>
   <i type="int" name="VOSKOWN">     0</i>
   <i type="logical" name="LHFCALC"> F  </i>
   <i type="string" name="PRECFOCK"></i>
   <i type="logical" name="LSYMGRAD"> F  </i>
   <i type="logical" name="LHFONE"> F  </i>
   <i type="logical" name="LRHFCALC"> F  </i>
   <i type="logical" name="LTHOMAS"> F  </i>
   <i type="logical" name="LMODELHF"> F  </i>
   <i type="logical" name="LFOCKACE"> F  </i>
   <i name="ENCUT4O">     -1.00000000</i>
   <i type="int" name="EXXOEP">     0</i>
   <i type="int" name="FOURORBIT">     0</i>
   <i name="AEXX">      0.00000000</i>
   <i name="HFALPHA">      0.00000000</i>
   <i name="MCALPHA">      0.00000000</i>
   <i name="ALDAX">      1.00000000</i>
   <i name="AGGAX">      1.00000000</i>
   <i name="ALDAC">      1.00000000</i>
   <i name="AGGAC">      1.00000000</i>
   <i type="int" name="NKREDX">     1</i>
   <i type="int" name="NKREDY">     1</i>
   <i type="int" name="NKREDZ">     1</i>
   <i type="logical" name="SHIFTRED"> F  </i>
   <i type="logical" name="ODDONLY"> F  </i>
   <i type="logical" name="EVENONLY"> F  </i>
   <i type="int" name="LMAXFOCK">     0</i>
   <i type="int" name="NMAXFOCKAE">     0</i>
   <i type="logical" name="LFOCKAEDFT"> F  </i>
   <i name="HFSCREEN">      0.00000000</i>
   <i name="HFSCREENC">      0.00000000</i>
   <i type="int" name="NBANDSGWLOW">     0</i>
  </separator>
  <separator name="vdW DFT" >
   <i type="logical" name="LUSE_VDW"> F  </i>
   <i name="Zab_VDW">     -0.84910000</i>
   <i name="PARAM1">      0.12340000</i>
   <i name="PARAM2">      1.00000000</i>
   <i name="PARAM3">      0.00000000</i>
  </separator>
  <separator name="model GW" >
   <i type="int" name="MODEL_GW">     0</i>
   <i name="MODEL_EPS0">     13.18532537</i>
   <i name="MODEL_ALPHA">      1.00000000</i>
  </separator>
  <separator name="linear response parameters" >
   <i type="logical" name="LEPSILON"> F  </i>
   <i type="logical" name="LRPA"> F  </i>
   <i type="logical" name="LNABLA"> F  </i>
   <i type="logical" name="LVEL"> F  </i>
   <i name="CSHIFT">      0.10000000</i>
   <i name="OMEGAMAX">     -1.00000000</i>
   <i name="DEG_THRESHOLD">      0.00200000</i>
   <i name="RTIME">     -0.10000000</i>
   <i name="WPLASMAI">      0.00000000</i>
   <v name="DFIELD">      0.00000000      0.00000000      0.00000000</v>
   <v name="WPLASMA">      0.00000000      0.00000000      0.00000000      0.00000000      0.00000000      0.00000000      0.00000000      0.00000000      0.00000000</v>
  </separator>
  <separator name="orbital magnetization" >
   <i type="logical" name="NUCIND"> F  </i>
   <v name="MAGPOS">      0.00000000      0.00000000      0.00000000</v>
   <i type="logical" name="LNICSALL"> T  </i>
   <i type="logical" name="ORBITALMAG"> F  </i>
   <i type="logical" name="LMAGBLOCH"> F  </i>
   <i type="logical" name="LCHIMAG"> F  </i>
   <i type="logical" name="LGAUGE"> T  </i>
   <i type="int" name="MAGATOM">     0</i>
   <v name="MAGDIPOL">      0.00000000      0.00000000      0.00000000</v>
   <v name="AVECCONST">      0.00000000      0.00000000      0.00000000</v>
  </separator>
  <separator name="response functions" >
   <i type="logical" name="LFINITE_TEMPERATURE"> F  </i>
   <i type="logical" name="LADDER"> F  </i>
   <i type="logical" name="LRPAFORCE"> F  </i>
   <i type="logical" name="LFXC"> F  </i>
   <i type="logical" name="LHARTREE"> T  </i>
   <i type="int" name="IBSE">     0</i>
   <v type="int" name="KPOINT">    -1     0     0     0</v>
   <i type="logical" name="LTCTC"> F  </i>
   <i type="logical" name="LTCTE"> F  </i>
   <i type="logical" name="LTETE"> F  </i>
   <i type="logical" name="LTRIPLET"> F  </i>
   <i type="logical" name="LFXCEPS"> F  </i>
   <i type="logical" name="LFXHEG"> F  </i>
   <i type="int" name="NATURALO">     2</i>
   <i type="logical" name="LHOLEGF"> F  </i>
   <i type="logical" name="L2ORDER"> F  </i>
   <i type="logical" name="LDMP1"> F  </i>
   <i type="logical" name="LMP2LT"> F  </i>
   <i type="logical" name="LSMP2LT"> F  </i>
   <i type="logical" name="LGWLF"> F  </i>
   <i name="ENCUTGW">     -2.00000000</i>
   <i name="ENCUTGWSOFT">     -2.00000000</i>
   <i name="ENCUTLF">     -1.00000000</i>
   <i type="logical" name="LESF_SPLINES"> F  </i>
   <i type="int" name="LMAXMP2">    -1</i>
   <i name="SCISSOR">      0.00000000</i>
   <i type="int" name="NOMEGA">     0</i>
   <i type="int" name="NOMEGAR">     0</i>
   <i type="int" name="NBANDSGW">    -1</i>
   <i type="int" name="NBANDSO">    -1</i>
   <i type="int" name="NBANDSV">    -1</i>
   <i type="int" name="NELMGW">     1</i>
   <i type="int" name="NELMHF">     1</i>
   <i type="int" name="DIM">     3</i>
   <i type="int" name="IESPILON">     4</i>
   <i type="int" name="ANTIRES">     0</i>
   <i name="OMEGAMAX">    -30.00000000</i>
   <i name="OMEGAMIN">    -30.00000000</i>
   <i name="OMEGATL">   -200.00000000</i>
   <i type="int" name="OMEGAGRID">     0</i>
   <i name="CSHIFT">     -0.10000000</i>
   <i type="logical" name="LSELFENERGY"> F  </i>
   <i type="logical" name="LSPECTRAL"> F  </i>
   <i type="logical" name="LSPECTRALGW"> F  </i>
   <i type="logical" name="LSINGLES"> F  </i>
   <i type="logical" name="LFERMIGW"> F  </i>
   <i type="logical" name="ODDONLYGW"> F  </i>
   <i type="logical" name="EVENONLYGW"> F  </i>
   <i type="int" name="NKREDLFX">     1</i>
   <i type="int" name="NKREDLFY">     1</i>
   <i type="int" name="NKREDLFZ">     1</i>
   <i type="int" name="MAXMEM">  2800</i>
   <i type="int" name="TELESCOPE">     0</i>
   <i type="int" name="NTAUPAR">    -1</i>
   <i type="int" name="NOMEGAPAR">    -1</i>
   <i name="DAMP_NEWTON">      0.80000001</i>
   <i name="LAMBDA">      1.00000000</i>
  </separator>
  <separator name="External order field" >
   <i name="OFIELD_KAPPA">      0.00000000</i>
   <v name="OFIELD_K">      0.00000000      0.00000000      0.00000000</v>
   <i name="OFIELD_Q6_NEAR">      0.00000000</i>
   <i name="OFIELD_Q6_FAR">      0.00000000</i>
   <i name="OFIELD_A">      0.00000000</i>
  </separator>
  <separator name="optional k-points parameters" >
   <i type="int" name="KPOINTS_OPT_MODE">     1</i>
   <i type="logical" name="LKPOINTS_OPT"> F  </i>
  </separator>
 </parameters>
 <atominfo>
  <atoms>      64 </atoms>
  <types>       2 </types>
  <array name="atoms" >
   <dimension dim="1">ion</dimension>
   <field type="string">element</field>
   <field type="int">atomtype</field>
   <set>
    <rc><c>Na</c><c>   1</c></rc>
    <rc><c>Na</c><c>   1</c></rc>
    <rc><c>Na</c><c>   1</c></rc>
    <rc><c>Na</c><c>   1</c></rc>
    <rc><c>Na</c><c>   1</c></rc>
    <rc><c>Na</c><c>   1</c></rc>
    <rc><c>Na</c><c>   1</c></rc>
    <rc><c>Na</c><c>   1</c></rc>
    <rc><c>Na</c><c>   1</c></rc>
    <rc><c>Na</c><c>   1</c></rc>
    <rc><c>Na</c><c>   1</c></rc>
    <rc><c>Na</c><c>   1</c></rc>
    <rc><c>Na</c><c>   1</c></rc>
    <rc><c>Na</c><c>   1</c></rc>
    <rc><c>Na</c><c>   1</c></rc>
    <rc><c>Na</c><c>   1</c></rc>
    <rc><c>Na</c><c>   1</c></rc>
    <rc><c>Na</c><c>   1</c></rc>
    <rc><c>Na</c><c>   1</c></rc>
    <rc><c>Na</c><c>   1</c></rc>
    <rc><c>Na</c><c>   1</c></rc>
    <rc><c>Na</c><c>   1</c></rc>
    <rc><c>Na</c><c>   1</c></rc>
    <rc><c>Na</c><c>   1</c></rc>
    <rc><c>Na</c><c>   1</c></rc>
    <rc><c>Na</c><c>   1</c></rc>
    <rc><c>Na</c><c>   1</c></rc>
    <rc><c>Na</c><c>   1</c></rc>
    <rc><c>Na</c><c>   1</c></rc>
    <rc><c>Na</c><c>   1</c></rc>
    <rc><c>Na</c><c>   1</c></rc>
    <rc><c>Na</c><c>   1</c></rc>
    <rc><c>Cl</c><c>   2</c></rc>
    <rc><c>Cl</c><c>   2</c></rc>
    <rc><c>Cl</c><c>   2</c></rc>
    <rc><c>Cl</c><c>   2</c></rc>
    <rc><c>Cl</c><c>   2</c></rc>
    <rc><c>Cl</c><c>   2</c></rc>
    <rc><c>Cl</c><c>   2</c></rc>
    <rc><c>Cl</c><c>   2</c></rc>
    <rc><c>Cl</c><c>   2</c></rc>
    <rc><c>Cl</c><c>   2</c></rc>
    <rc><c>Cl</c><c>   2</c></rc>
    <rc><c>Cl</c><c>   2</c></rc>
    <rc><c>Cl</c><c>   2</c></rc>
    <rc><c>Cl</c><c>   2</c></rc>
    <rc><c>Cl</c><c>   2</c></rc>
    <rc><c>Cl</c><c>   2</c></rc>
    <rc><c>Cl</c><c>   2</c></rc>
    <rc><c>Cl</c><c>   2</c></rc>
    <rc><c>Cl</c><c>   2</c></rc>
    <rc><c>Cl</c><c>   2</c></rc>
    <rc><c>Cl</c><c>   2</c></rc>
    <rc><c>Cl</c><c>   2</c></rc>
    <rc><c>Cl</c><c>   2</c></rc>
    <rc><c>Cl</c><c>   2</c></rc>
    <rc><c>Cl</c><c>   2</c></rc>
    <rc><c>Cl</c><c>   2</c></rc>
    <rc><c>Cl</c><c>   2</c></rc>
    <rc><c>Cl</c><c>   2</c></rc>
    <rc><c>Cl</c><c>   2</c></rc>
    <rc><c>Cl</c><c>   2</c></rc>
    <rc><c>Cl</c><c>   2</c></rc>
    <rc><c>Cl</c><c>   2</c></rc>
   </set>
  </array>
  <array name="atomtypes" >
   <dimension dim="1">type</dimension>
   <field type="int">atomspertype</field>
   <field type="string">element</field>
   <field>mass</field>
   <field>valence</field>
   <field type="string">pseudopotential</field>
   <set>
    <rc><c>  32</c><c>Na</c><c>     22.99000000</c><c>      7.00000000</c><c>  PAW_PBE Na_pv 19Sep2006               </c></rc>
    <rc><c>  32</c><c>Cl</c><c>     35.45300000</c><c>      7.00000000</c><c>  PAW_PBE Cl 06Sep2000                  </c></rc>
   </set>
  </array>
 </atominfo>
 <structure name="initialpos" >
  <crystal>
   <varray name="basis" >
    <v>      11.20400236       0.00000000       0.00000000 </v>
    <v>       0.00000000      11.20400236       0.00000000 </v>
    <v>       0.00000000       0.00000000      11.20400236 </v>
   </varray>
   <i name="volume">   1406.43470641 </i>
   <varray name="rec_basis" >
    <v>       0.08925382       0.00000000       0.00000000 </v>
    <v>       0.00000000       0.08925382       0.00000000 </v>
    <v>       0.00000000       0.00000000       0.08925382 </v>
   </varray>
  </crystal>
  <varray name="positions" >
   <v>       0.00000000       0.00000000       0.00000000 </v>
   <v>       0.25000000       0.25000000       0.00000000 </v>
   <v>       0.25000000       0.00000000       0.25000000 </v>
   <v>       0.00000000       0.25000000       0.25000000 </v>
   <v>       0.00000000       0.00000000       0.50000000 </v>
   <v>       0.25000000       0.25000000       0.50000000 </v>
   <v>       0.25000000       0.00000000       0.75000000 </v>
   <v>       0.00000000       0.25000000       0.75000000 </v>
   <v>       0.00000000       0.50000000       0.00000000 </v>
   <v>       0.25000000       0.75000000       0.00000000 </v>
   <v>       0.25000000       0.50000000       0.25000000 </v>
   <v>       0.00000000       0.75000000       0.25000000 </v>
   <v>       0.00000000       0.50000000       0.50000000 </v>
   <v>       0.25000000       0.75000000       0.50000000 </v>
   <v>       0.25000000       0.50000000       0.75000000 </v>
   <v>       0.00000000       0.75000000       0.75000000 </v>
   <v>       0.50000000       0.00000000       0.00000000 </v>
   <v>       0.75000000       0.25000000       0.00000000 </v>
   <v>       0.75000000       0.00000000       0.25000000 </v>
   <v>       0.50000000       0.25000000       0.25000000 </v>
   <v>       0.50000000       0.00000000       0.50000000 </v>
   <v>       0.75000000       0.25000000       0.50000000 </v>
   <v>       0.75000000       0.00000000       0.75000000 </v>
   <v>       0.50000000       0.25000000       0.75000000 </v>
   <v>       0.50000000       0.50000000       0.00000000 </v>
   <v>       0.75000000       0.75000000       0.00000000 </v>
   <v>       0.75000000       0.50000000       0.25000000 </v>
   <v>       0.50000000       0.75000000       0.25000000 </v>
   <v>       0.50000000       0.50000000       0.50000000 </v>
   <v>       0.75000000       0.75000000       0.50000000 </v>
   <v>       0.75000000       0.50000000       0.75000000 </v>
   <v>       0.50000000       0.75000000       0.75000000 </v>
   <v>       0.24732239       0.25000000       0.25000000 </v>
   <v>       0.00000000       0.00267761       0.25000000 </v>
   <v>       0.00000000       0.25000000       0.00000000 </v>
   <v>       0.25000000       0.00000000       0.00000000 </v>
   <v>       0.25000000       0.25000000       0.75000000 </v>
   <v>       0.00000000       0.00000000       0.75000000 </v>
   <v>       0.00000000       0.25000000       0.50000000 </v>
   <v>       0.25000000       0.00000000       0.50000000 </v>
   <v>       0.25000000       0.75000000       0.25000000 </v>
   <v>       0.00000000       0.50000000       0.25000000 </v>
   <v>       0.00000000       0.75000000       0.00000000 </v>
   <v>       0.25000000       0.50000000       0.00000000 </v>
   <v>       0.25000000       0.75000000       0.75000000 </v>
   <v>       0.00000000       0.50000000       0.75000000 </v>
   <v>       0.00000000       0.75000000       0.50000000 </v>
   <v>       0.25000000       0.50000000       0.50000000 </v>
   <v>       0.75000000       0.25000000       0.25000000 </v>
   <v>       0.50000000       0.00000000       0.25000000 </v>
   <v>       0.50000000       0.25000000       0.00000000 </v>
   <v>       0.75000000       0.00000000       0.00000000 </v>
   <v>       0.75000000       0.25000000       0.75000000 </v>
   <v>       0.50000000       0.00000000       0.75000000 </v>
   <v>       0.50000000       0.25000000       0.50000000 </v>
   <v>       0.75000000       0.00000000       0.50000000 </v>
   <v>       0.75000000       0.75000000       0.25000000 </v>
   <v>       0.50000000       0.50000000       0.25000000 </v>
   <v>       0.50000000       0.75000000       0.00000000 </v>
   <v>       0.75000000       0.50000000       0.00000000 </v>
   <v>       0.75000000       0.75000000       0.75000000 </v>
   <v>       0.50000000       0.50000000       0.75000000 </v>
   <v>       0.50000000       0.75000000       0.50000000 </v>
   <v>       0.75000000       0.50000000       0.50000000 </v>
  </varray>
 </structure>
 <calculation>
  <scstep>
   <time name="dav">    7.72    7.76</time>
   <time name="total">    7.79    7.83</time>
   <energy>
    <i name="alphaZ">    751.52672365 </i>
    <i name="ewald"> -22871.32574669 </i>
    <i name="hartreedc">  -8992.26253839 </i>
    <i name="XCdc">   1456.53431672 </i>
    <i name="pawpsdc">  26466.43774078 </i>
    <i name="pawaedc"> -29286.08056155 </i>
    <i name="eentropy">     -0.00032134 </i>
    <i name="bandstr">   -670.19309705 </i>
    <i name="atom">  37532.17946992 </i>
    <i name="e_fr_energy">   4386.81598605 </i>
    <i name="e_wo_entrp">   4386.81630739 </i>
    <i name="e_0_energy">   4386.81614672 </i>
   </energy>
  </scstep>
  <scstep>
   <time name="dav">    8.09    8.14</time>
   <time name="total">    8.09    8.14</time>
   <energy>
    <i name="e_fr_energy">    364.35710763 </i>
    <i name="e_wo_entrp">    364.35710763 </i>
    <i name="e_0_energy">    364.35710763 </i>
   </energy>
  </scstep>
  <scstep>
   <time name="dav">    8.58    8.63</time>
   <time name="total">    8.58    8.63</time>
   <energy>
    <i name="e_fr_energy">   -205.07973262 </i>
    <i name="e_wo_entrp">   -205.07973262 </i>
    <i name="e_0_energy">   -205.07973262 </i>
   </energy>
  </scstep>
  <scstep>
   <time name="dav">    8.60    8.65</time>
   <time name="total">    8.60    8.65</time>
   <energy>
    <i name="e_fr_energy">   -228.13632690 </i>
    <i name="e_wo_entrp">   -228.13632690 </i>
    <i name="e_0_energy">   -228.13632690 </i>
   </energy>
  </scstep>
  <scstep>
   <time name="dav">    9.01    9.06</time>
   <time name="total">    9.28    9.33</time>
   <energy>
    <i name="e_fr_energy">   -229.00246353 </i>
    <i name="e_wo_entrp">   -229.00246353 </i>
    <i name="e_0_energy">   -229.00246353 </i>
   </energy>
  </scstep>
  <scstep>
   <time name="dav">    8.77    8.82</time>
   <time name="total">    9.11    9.16</time>
   <energy>
    <i name="e_fr_energy">   -224.13886531 </i>
    <i name="e_wo_entrp">   -224.13886531 </i>
    <i name="e_0_energy">   -224.13886531 </i>
   </energy>
  </scstep>
  <scstep>
   <time name="dav">    9.45    9.51</time>
   <time name="total">    9.79    9.84</time>
   <energy>
    <i name="e_fr_energy">   -223.77728006 </i>
    <i name="e_wo_entrp">   -223.77728006 </i>
    <i name="e_0_energy">   -223.77728006 </i>
   </energy>
  </scstep>
  <scstep>
   <time name="dav">    8.44    8.48</time>
   <time name="total">    8.77    8.83</time>
   <energy>
    <i name="e_fr_energy">   -223.90282923 </i>
    <i name="e_wo_entrp">   -223.90282923 </i>
    <i name="e_0_energy">   -223.90282923 </i>
   </energy>
  </scstep>
  <scstep>
   <time name="dav">    8.75    8.80</time>
   <time name="total">    9.09    9.14</time>
   <energy>
    <i name="e_fr_energy">   -223.89692905 </i>
    <i name="e_wo_entrp">   -223.89692905 </i>
    <i name="e_0_energy">   -223.89692905 </i>
   </energy>
  </scstep>
  <scstep>
   <time name="dav">    8.54    8.59</time>
   <time name="total">    8.87    8.92</time>
   <energy>
    <i name="e_fr_energy">   -223.90102983 </i>
    <i name="e_wo_entrp">   -223.90102983 </i>
    <i name="e_0_energy">   -223.90102983 </i>
   </energy>
  </scstep>
  <scstep>
   <time name="dav">    8.64    8.69</time>
   <time name="total">    8.98    9.03</time>
   <energy>
    <i name="e_fr_energy">   -223.90028507 </i>
    <i name="e_wo_entrp">   -223.90028507 </i>
    <i name="e_0_energy">   -223.90028507 </i>
   </energy>
  </scstep>
  <scstep>
   <time name="dav">    9.49    9.55</time>
   <time name="total">    9.83    9.88</time>
   <energy>
    <i name="e_fr_energy">   -223.90025006 </i>
    <i name="e_wo_entrp">   -223.90025006 </i>
    <i name="e_0_energy">   -223.90025006 </i>
   </energy>
  </scstep>
  <scstep>
   <time name="dav">    8.21    8.26</time>
   <time name="total">    8.55    8.60</time>
   <energy>
    <i name="e_fr_energy">   -223.90023921 </i>
    <i name="e_wo_entrp">   -223.90023921 </i>
    <i name="e_0_energy">   -223.90023921 </i>
   </energy>
  </scstep>
  <scstep>
   <time name="dav">    8.97    9.02</time>
   <time name="total">    9.31    9.36</time>
   <energy>
    <i name="e_fr_energy">   -223.90024137 </i>
    <i name="e_wo_entrp">   -223.90024137 </i>
    <i name="e_0_energy">   -223.90024137 </i>
   </energy>
  </scstep>
  <scstep>
   <time name="dav">    9.08    9.13</time>
   <time name="total">    9.42    9.47</time>
   <energy>
    <i name="e_fr_energy">   -223.90024224 </i>
    <i name="e_wo_entrp">   -223.90024224 </i>
    <i name="e_0_energy">   -223.90024224 </i>
   </energy>
  </scstep>
  <scstep>
   <time name="dav">    8.75    8.79</time>
   <time name="total">    9.09    9.14</time>
   <energy>
    <i name="e_fr_energy">   -223.90024292 </i>
    <i name="e_wo_entrp">   -223.90024292 </i>
    <i name="e_0_energy">   -223.90024292 </i>
   </energy>
  </scstep>
  <scstep>
   <time name="dav">    6.48    6.51</time>
   <time name="total">    6.82    6.85</time>
   <energy>
    <i name="e_fr_energy">   -223.90024303 </i>
    <i name="e_wo_entrp">   -223.90024303 </i>
    <i name="e_0_energy">   -223.90024303 </i>
   </energy>
  </scstep>
  <scstep>
   <time name="dav">    7.36    7.40</time>
   <time name="total">    7.70    7.74</time>
   <energy>
    <i name="e_fr_energy">   -223.90024317 </i>
    <i name="e_wo_entrp">   -223.90024317 </i>
    <i name="e_0_energy">   -223.90024317 </i>
   </energy>
  </scstep>
  <scstep>
   <time name="dav">    5.89    5.92</time>
   <time name="total">    6.23    6.27</time>
   <energy>
    <i name="e_fr_energy">   -223.90024314 </i>
    <i name="e_wo_entrp">   -223.90024314 </i>
    <i name="e_0_energy">   -223.90024314 </i>
   </energy>
  </scstep>
  <scstep>
   <time name="dav">    6.16    6.19</time>
   <time name="total">    6.50    6.54</time>
   <energy>
    <i name="e_fr_energy">   -223.90024311 </i>
    <i name="e_wo_entrp">   -223.90024311 </i>
    <i name="e_0_energy">   -223.90024311 </i>
   </energy>
  </scstep>
  <scstep>
   <time name="dav">    5.60    5.63</time>
   <time name="total">    5.94    5.97</time>
   <energy>
    <i name="e_fr_energy">   -223.90024306 </i>
    <i name="e_wo_entrp">   -223.90024306 </i>
    <i name="e_0_energy">   -223.90024306 </i>
   </energy>
  </scstep>
  <scstep>
   <time name="dav">    5.54    5.57</time>
   <time name="total">    5.61    5.64</time>
   <energy>
    <i name="alphaZ">    751.52672365 </i>
    <i name="ewald"> -22871.32574669 </i>
    <i name="hartreedc">  -9078.18489872 </i>
    <i name="XCdc">   1472.51354883 </i>
    <i name="pawpsdc">  29498.31021759 </i>
    <i name="pawaedc"> -32317.67473849 </i>
    <i name="eentropy">     -0.00000000 </i>
    <i name="bandstr">  -5211.24481916 </i>
    <i name="atom">  37532.17946992 </i>
    <i name="e_fr_energy">   -223.90024306 </i>
    <i name="e_wo_entrp">   -223.90024306 </i>
    <i name="e_0_energy">   -223.90024306 </i>
   </energy>
  </scstep>
  <structure>
   <crystal>
    <varray name="basis" >
     <v>      11.20400236       0.00000000       0.00000000 </v>
     <v>       0.00000000      11.20400236       0.00000000 </v>
     <v>       0.00000000       0.00000000      11.20400236 </v>
    </varray>
    <i name="volume">   1406.43470641 </i>
    <varray name="rec_basis" >
     <v>       0.08925382       0.00000000       0.00000000 </v>
     <v>       0.00000000       0.08925382       0.00000000 </v>
     <v>       0.00000000       0.00000000       0.08925382 </v>
    </varray>
   </crystal>
   <varray name="positions" >
    <v>       0.00000000       0.00000000       0.00000000 </v>
    <v>       0.25000000       0.25000000       0.00000000 </v>
    <v>       0.25000000       0.00000000       0.25000000 </v>
    <v>       0.00000000       0.25000000       0.25000000 </v>
    <v>       0.00000000       0.00000000       0.50000000 </v>
    <v>       0.25000000       0.25000000       0.50000000 </v>
    <v>       0.25000000       0.00000000       0.75000000 </v>
    <v>       0.00000000       0.25000000       0.75000000 </v>
    <v>       0.00000000       0.50000000       0.00000000 </v>
    <v>       0.25000000       0.75000000       0.00000000 </v>
    <v>       0.25000000       0.50000000       0.25000000 </v>
    <v>       0.00000000       0.75000000       0.25000000 </v>
    <v>       0.00000000       0.50000000       0.50000000 </v>
    <v>       0.25000000       0.75000000       0.50000000 </v>
    <v>       0.25000000       0.50000000       0.75000000 </v>
    <v>       0.00000000       0.75000000       0.75000000 </v>
    <v>       0.50000000       0.00000000       0.00000000 </v>
    <v>       0.75000000       0.25000000       0.00000000 </v>
    <v>       0.75000000       0.00000000       0.25000000 </v>
    <v>       0.50000000       0.25000000       0.25000000 </v>
    <v>       0.50000000       0.00000000       0.50000000 </v>
    <v>       0.75000000       0.25000000       0.50000000 </v>
    <v>       0.75000000       0.00000000       0.75000000 </v>
    <v>       0.50000000       0.25000000       0.75000000 </v>
    <v>       0.50000000       0.50000000       0.00000000 </v>
    <v>       0.75000000       0.75000000       0.00000000 </v>
    <v>       0.75000000       0.50000000       0.25000000 </v>
    <v>       0.50000000       0.75000000       0.25000000 </v>
    <v>       0.50000000       0.50000000       0.50000000 </v>
    <v>       0.75000000       0.75000000       0.50000000 </v>
    <v>       0.75000000       0.50000000       0.75000000 </v>
    <v>       0.50000000       0.75000000       0.75000000 </v>
    <v>       0.24732239       0.25000000       0.25000000 </v>
    <v>       0.00000000       0.00267761       0.25000000 </v>
    <v>       0.00000000       0.25000000       0.00000000 </v>
    <v>       0.25000000       0.00000000       0.00000000 </v>
    <v>       0.25000000       0.25000000       0.75000000 </v>
    <v>       0.00000000       0.00000000       0.75000000 </v>
    <v>       0.00000000       0.25000000       0.50000000 </v>
    <v>       0.25000000       0.00000000       0.50000000 </v>
    <v>       0.25000000       0.75000000       0.25000000 </v>
    <v>       0.00000000       0.50000000       0.25000000 </v>
    <v>       0.00000000       0.75000000       0.00000000 </v>
    <v>       0.25000000       0.50000000       0.00000000 </v>
    <v>       0.25000000       0.75000000       0.75000000 </v>
    <v>       0.00000000       0.50000000       0.75000000 </v>
    <v>       0.00000000       0.75000000       0.50000000 </v>
    <v>       0.25000000       0.50000000       0.50000000 </v>
    <v>       0.75000000       0.25000000       0.25000000 </v>
    <v>       0.50000000       0.00000000       0.25000000 </v>
    <v>       0.50000000       0.25000000       0.00000000 </v>
    <v>       0.75000000       0.00000000       0.00000000 </v>
    <v>       0.75000000       0.25000000       0.75000000 </v>
    <v>       0.50000000       0.00000000       0.75000000 </v>
    <v>       0.50000000       0.25000000       0.50000000 </v>
    <v>       0.75000000       0.00000000       0.50000000 </v>
    <v>       0.75000000       0.75000000       0.25000000 </v>
    <v>       0.50000000       0.50000000       0.25000000 </v>
    <v>       0.50000000       0.75000000       0.00000000 </v>
    <v>       0.75000000       0.50000000       0.00000000 </v>
    <v>       0.75000000       0.75000000       0.75000000 </v>
    <v>       0.50000000       0.50000000       0.75000000 </v>
    <v>       0.50000000       0.75000000       0.50000000 </v>
    <v>       0.75000000       0.50000000       0.50000000 </v>
   </varray>
  </structure>
  <varray name="forces" >
   <v>       0.00020507       0.00630382       0.00139924 </v>
   <v>      -0.00630382      -0.00020507       0.00139924 </v>
   <v>      -0.00508690       0.00508690      -0.00000000 </v>
   <v>      -0.02028293       0.02028293      -0.00000000 </v>
   <v>       0.00020507       0.00630382      -0.00139924 </v>
   <v>      -0.00630382      -0.00020507      -0.00139924 </v>
   <v>      -0.00060895       0.00060895      -0.00000000 </v>
   <v>      -0.00016672       0.00016672      -0.00000000 </v>
   <v>       0.00021578      -0.00412941       0.00130168 </v>
   <v>       0.00068239      -0.00023806      -0.00128820 </v>
   <v>      -0.00501420      -0.00294929      -0.00000000 </v>
   <v>      -0.00016901       0.01622037      -0.00000000 </v>
   <v>       0.00021578      -0.00412941      -0.00130168 </v>
   <v>       0.00068239      -0.00023806       0.00128820 </v>
   <v>      -0.00060946      -0.00067078      -0.00000000 </v>
   <v>      -0.00000575       0.00015156      -0.00000000 </v>
   <v>       0.00023806      -0.00068239      -0.00128820 </v>
   <v>       0.00412941      -0.00021578       0.00130168 </v>
   <v>       0.00294929       0.00501420      -0.00000000 </v>
   <v>      -0.01622037       0.00016901      -0.00000000 </v>
   <v>       0.00023806      -0.00068239       0.00128820 </v>
   <v>       0.00412941      -0.00021578      -0.00130168 </v>
   <v>       0.00067078       0.00060946      -0.00000000 </v>
   <v>      -0.00015156       0.00000575      -0.00000000 </v>
   <v>       0.00023361       0.00062009      -0.00128632 </v>
   <v>      -0.00062009      -0.00023361      -0.00128632 </v>
   <v>       0.00283484      -0.00283484      -0.00000000 </v>
   <v>      -0.00015073       0.00015073      -0.00000000 </v>
   <v>       0.00023361       0.00062009       0.00128632 </v>
   <v>      -0.00062009      -0.00023361       0.00128632 </v>
   <v>       0.00067168      -0.00067168      -0.00000000 </v>
   <v>       0.00000386      -0.00000386      -0.00000000 </v>
   <v>       0.08208541       0.00410709      -0.00000000 </v>
   <v>      -0.00410709      -0.08208541      -0.00000000 </v>
   <v>      -0.00390667       0.00390667      -0.01173386 </v>
   <v>       0.00230236      -0.00230236       0.00006485 </v>
   <v>       0.00212172      -0.00005447      -0.00000000 </v>
   <v>       0.00005447      -0.00212172      -0.00000000 </v>
   <v>      -0.00390667       0.00390667       0.01173386 </v>
   <v>       0.00230236      -0.00230236      -0.00006485 </v>
   <v>      -0.00418520       0.00386161      -0.00000000 </v>
   <v>      -0.00391864       0.00971613      -0.00000000 </v>
   <v>       0.00005372       0.00385875       0.00515893 </v>
   <v>       0.00233838       0.00152028       0.00002025 </v>
   <v>      -0.00004818      -0.00003601      -0.00000000 </v>
   <v>       0.00005198       0.00253134      -0.00000000 </v>
   <v>       0.00005372       0.00385875      -0.00515893 </v>
   <v>       0.00233838       0.00152028      -0.00002025 </v>
   <v>      -0.00971613       0.00391864      -0.00000000 </v>
   <v>      -0.00386161       0.00418520      -0.00000000 </v>
   <v>      -0.00385875      -0.00005372       0.00515893 </v>
   <v>      -0.00152028      -0.00233838       0.00002025 </v>
   <v>      -0.00253134      -0.00005198      -0.00000000 </v>
   <v>       0.00003601       0.00004818      -0.00000000 </v>
   <v>      -0.00385875      -0.00005372      -0.00515893 </v>
   <v>      -0.00152028      -0.00233838      -0.00002025 </v>
   <v>       0.00377478       0.00385532      -0.00000000 </v>
   <v>      -0.00385532      -0.00377478      -0.00000000 </v>
   <v>       0.00003736      -0.00003736       0.00113548 </v>
   <v>      -0.00154792       0.00154792      -0.00000683 </v>
   <v>       0.00003995      -0.00003810      -0.00000000 </v>
   <v>       0.00003810      -0.00003995      -0.00000000 </v>
   <v>       0.00003736      -0.00003736      -0.00113548 </v>
   <v>      -0.00154792       0.00154792       0.00000683 </v>
  </varray>
  <varray name="stress" >
   <v>      -0.36593113       0.00044596       0.00000000 </v>
   <v>       0.00044596      -0.36593113       0.00000000 </v>
   <v>       0.00000000       0.00000000      -0.37825177 </v>
  </varray>
  <energy>
   <i name="e_fr_energy">   -223.90024306 </i>
   <i name="e_wo_entrp">   -223.90024306 </i>
   <i name="e_0_energy">   -223.90024306 </i>
  </energy>
  <time name="totalsc">  193.79  194.87</time>
  <eigenvalues>
   <array>
    <dimension dim="1">band</dimension>
    <dimension dim="2">kpoint</dimension>
    <dimension dim="3">spin</dimension>
    <field>eigene</field>
    <field>occ</field>
    <set>
     <set comment="spin 1">
      <set comment="kpoint 1">
       <r>  -21.3084    1.0000 </r>
       <r>  -21.3084    1.0000 </r>
       <r>  -21.3082    1.0000 </r>
       <r>  -21.3042    1.0000 </r>
       <r>  -21.3037    1.0000 </r>
       <r>  -21.3026    1.0000 </r>
       <r>  -21.3026    1.0000 </r>
       <r>  -21.2988    1.0000 </r>
       <r>  -21.2988    1.0000 </r>
       <r>  -21.2981    1.0000 </r>
       <r>  -21.2938    1.0000 </r>
       <r>  -21.2937    1.0000 </r>
       <r>  -21.2937    1.0000 </r>
       <r>  -21.2936    1.0000 </r>
       <r>  -21.2934    1.0000 </r>
       <r>  -21.2933    1.0000 </r>
       <r>  -21.2933    1.0000 </r>
       <r>  -21.2933    1.0000 </r>
       <r>  -21.2918    1.0000 </r>
       <r>  -21.2908    1.0000 </r>
       <r>  -21.2908    1.0000 </r>
       <r>  -21.2901    1.0000 </r>
       <r>  -21.2891    1.0000 </r>
       <r>  -21.2878    1.0000 </r>
       <r>  -21.2878    1.0000 </r>
       <r>  -21.2863    1.0000 </r>
       <r>  -21.2863    1.0000 </r>
       <r>  -21.2862    1.0000 </r>
       <r>  -21.2862    1.0000 </r>
       <r>  -21.2860    1.0000 </r>
       <r>  -21.2856    1.0000 </r>
       <r>  -21.2850    1.0000 </r>
       <r>  -21.2842    1.0000 </r>
       <r>  -21.2842    1.0000 </r>
       <r>  -21.2841    1.0000 </r>
       <r>  -21.2836    1.0000 </r>
       <r>  -21.2832    1.0000 </r>
       <r>  -21.2829    1.0000 </r>
       <r>  -21.2829    1.0000 </r>
       <r>  -21.2826    1.0000 </r>
       <r>  -21.2817    1.0000 </r>
       <r>  -21.2813    1.0000 </r>
       <r>  -21.2810    1.0000 </r>
       <r>  -21.2810    1.0000 </r>
       <r>  -21.2810    1.0000 </r>
       <r>  -21.2808    1.0000 </r>
       <r>  -21.2807    1.0000 </r>
       <r>  -21.2803    1.0000 </r>
       <r>  -21.2801    1.0000 </r>
       <r>  -21.2800    1.0000 </r>
       <r>  -21.2800    1.0000 </r>
       <r>  -21.2800    1.0000 </r>
       <r>  -21.2799    1.0000 </r>
       <r>  -21.2799    1.0000 </r>
       <r>  -21.2798    1.0000 </r>
       <r>  -21.2798    1.0000 </r>
       <r>  -21.2798    1.0000 </r>
       <r>  -21.2797    1.0000 </r>
       <r>  -21.2790    1.0000 </r>
       <r>  -21.2789    1.0000 </r>
       <r>  -21.2781    1.0000 </r>
       <r>  -21.2767    1.0000 </r>
       <r>  -21.2761    1.0000 </r>
       <r>  -21.2761    1.0000 </r>
       <r>  -21.2755    1.0000 </r>
       <r>  -21.2754    1.0000 </r>
       <r>  -21.2753    1.0000 </r>
       <r>  -21.2753    1.0000 </r>
       <r>  -21.2746    1.0000 </r>
       <r>  -21.2746    1.0000 </r>
       <r>  -21.2743    1.0000 </r>
       <r>  -21.2740    1.0000 </r>
       <r>  -21.2740    1.0000 </r>
       <r>  -21.2739    1.0000 </r>
       <r>  -21.2734    1.0000 </r>
       <r>  -21.2734    1.0000 </r>
       <r>  -21.2717    1.0000 </r>
       <r>  -21.2715    1.0000 </r>
       <r>  -21.2715    1.0000 </r>
       <r>  -21.2714    1.0000 </r>
       <r>  -21.2714    1.0000 </r>
       <r>  -21.2714    1.0000 </r>
       <r>  -21.2710    1.0000 </r>
       <r>  -21.2710    1.0000 </r>
       <r>  -21.2710    1.0000 </r>
       <r>  -21.2709    1.0000 </r>
       <r>  -21.2708    1.0000 </r>
       <r>  -21.2708    1.0000 </r>
       <r>  -21.2705    1.0000 </r>
       <r>  -21.2703    1.0000 </r>
       <r>  -21.2683    1.0000 </r>
       <r>  -21.2683    1.0000 </r>
       <r>  -21.2679    1.0000 </r>
       <r>  -21.2342    1.0000 </r>
       <r>  -21.2340    1.0000 </r>
       <r>  -21.2340    1.0000 </r>
       <r>  -13.3580    1.0000 </r>
       <r>  -13.1394    1.0000 </r>
       <r>  -13.1383    1.0000 </r>
       <r>  -13.1376    1.0000 </r>
       <r>  -13.1374    1.0000 </r>
       <r>  -13.1372    1.0000 </r>
       <r>  -13.1348    1.0000 </r>
       <r>  -13.0170    1.0000 </r>
       <r>  -13.0145    1.0000 </r>
       <r>  -13.0145    1.0000 </r>
       <r>  -13.0131    1.0000 </r>
       <r>  -13.0112    1.0000 </r>
       <r>  -13.0112    1.0000 </r>
       <r>  -13.0112    1.0000 </r>
       <r>  -13.0111    1.0000 </r>
       <r>  -13.0107    1.0000 </r>
       <r>  -13.0083    1.0000 </r>
       <r>  -13.0083    1.0000 </r>
       <r>  -13.0075    1.0000 </r>
       <r>  -12.9900    1.0000 </r>
       <r>  -12.9890    1.0000 </r>
       <r>  -12.9890    1.0000 </r>
       <r>  -12.9880    1.0000 </r>
       <r>  -12.9418    1.0000 </r>
       <r>  -12.9411    1.0000 </r>
       <r>  -12.9407    1.0000 </r>
       <r>  -12.9250    1.0000 </r>
       <r>  -12.9213    1.0000 </r>
       <r>  -12.9213    1.0000 </r>
       <r>  -12.9210    1.0000 </r>
       <r>  -12.9198    1.0000 </r>
       <r>  -12.9167    1.0000 </r>
       <r>   -2.7000    1.0000 </r>
       <r>   -2.7000    1.0000 </r>
       <r>   -2.7000    1.0000 </r>
       <r>   -2.6999    1.0000 </r>
       <r>   -2.4240    1.0000 </r>
       <r>   -2.4240    1.0000 </r>
       <r>   -2.4239    1.0000 </r>
       <r>   -2.2056    1.0000 </r>
       <r>   -2.2054    1.0000 </r>
       <r>   -2.2053    1.0000 </r>
       <r>   -2.2047    1.0000 </r>
       <r>   -2.2045    1.0000 </r>
       <r>   -2.2042    1.0000 </r>
       <r>   -2.2041    1.0000 </r>
       <r>   -2.2039    1.0000 </r>
       <r>   -2.2038    1.0000 </r>
       <r>   -2.2034    1.0000 </r>
       <r>   -2.2031    1.0000 </r>
       <r>   -2.2027    1.0000 </r>
       <r>   -1.9280    1.0000 </r>
       <r>   -1.9270    1.0000 </r>
       <r>   -1.9263    1.0000 </r>
       <r>   -1.9258    1.0000 </r>
       <r>   -1.9258    1.0000 </r>
       <r>   -1.9249    1.0000 </r>
       <r>   -1.9244    1.0000 </r>
       <r>   -1.9235    1.0000 </r>
       <r>   -1.9235    1.0000 </r>
       <r>   -1.9231    1.0000 </r>
       <r>   -1.9224    1.0000 </r>
       <r>   -1.9214    1.0000 </r>
       <r>   -1.7970    1.0000 </r>
       <r>   -1.7969    1.0000 </r>
       <r>   -1.7966    1.0000 </r>
       <r>   -1.7966    1.0000 </r>
       <r>   -1.7963    1.0000 </r>
       <r>   -1.7963    1.0000 </r>
       <r>   -1.5108    1.0000 </r>
       <r>   -1.5093    1.0000 </r>
       <r>   -1.5076    1.0000 </r>
       <r>   -1.5063    1.0000 </r>
       <r>   -1.5057    1.0000 </r>
       <r>   -1.5054    1.0000 </r>
       <r>   -1.5053    1.0000 </r>
       <r>   -1.5047    1.0000 </r>
       <r>   -1.5046    1.0000 </r>
       <r>   -1.5031    1.0000 </r>
       <r>   -1.5014    1.0000 </r>
       <r>   -1.5000    1.0000 </r>
       <r>   -1.4664    1.0000 </r>
       <r>   -1.4628    1.0000 </r>
       <r>   -1.4628    1.0000 </r>
       <r>   -1.4626    1.0000 </r>
       <r>   -1.4619    1.0000 </r>
       <r>   -1.4602    1.0000 </r>
       <r>   -1.2947    1.0000 </r>
       <r>   -1.2947    1.0000 </r>
       <r>   -1.2947    1.0000 </r>
       <r>   -1.2946    1.0000 </r>
       <r>   -1.2945    1.0000 </r>
       <r>   -1.2945    1.0000 </r>
       <r>   -1.0059    1.0000 </r>
       <r>   -1.0040    1.0000 </r>
       <r>   -1.0031    1.0000 </r>
       <r>   -1.0016    1.0000 </r>
       <r>   -1.0013    1.0000 </r>
       <r>   -1.0012    1.0000 </r>
       <r>   -1.0005    1.0000 </r>
       <r>   -1.0004    1.0000 </r>
       <r>   -1.0002    1.0000 </r>
       <r>   -0.9985    1.0000 </r>
       <r>   -0.9978    1.0000 </r>
       <r>   -0.9954    1.0000 </r>
       <r>   -0.9533    1.0000 </r>
       <r>   -0.9512    1.0000 </r>
       <r>   -0.9512    1.0000 </r>
       <r>   -0.9511    1.0000 </r>
       <r>   -0.9495    1.0000 </r>
       <r>   -0.9480    1.0000 </r>
       <r>   -0.9479    1.0000 </r>
       <r>   -0.9479    1.0000 </r>
       <r>   -0.9477    1.0000 </r>
       <r>   -0.9476    1.0000 </r>
       <r>   -0.9474    1.0000 </r>
       <r>   -0.9469    1.0000 </r>
       <r>   -0.9459    1.0000 </r>
       <r>   -0.9458    1.0000 </r>
       <r>   -0.9458    1.0000 </r>
       <r>   -0.9451    1.0000 </r>
       <r>   -0.9420    1.0000 </r>
       <r>   -0.9418    1.0000 </r>
       <r>   -0.9417    1.0000 </r>
       <r>   -0.9389    1.0000 </r>
       <r>   -0.6648    1.0000 </r>
       <r>   -0.6648    1.0000 </r>
       <r>   -0.6648    1.0000 </r>
       <r>    4.3402    0.0000 </r>
       <r>    6.3581    0.0000 </r>
       <r>    6.3645    0.0000 </r>
       <r>    6.3673    0.0000 </r>
       <r>    6.3680    0.0000 </r>
       <r>    6.3681    0.0000 </r>
       <r>    6.3807    0.0000 </r>
       <r>    6.4446    0.0000 </r>
       <r>    6.4448    0.0000 </r>
       <r>    6.4448    0.0000 </r>
       <r>    6.4454    0.0000 </r>
       <r>    6.8277    0.0000 </r>
       <r>    6.8280    0.0000 </r>
       <r>    6.8280    0.0000 </r>
       <r>    7.2066    0.0000 </r>
       <r>    7.2068    0.0000 </r>
       <r>    7.2068    0.0000 </r>
       <r>    7.4530    0.0000 </r>
       <r>    7.4551    0.0000 </r>
       <r>    7.4569    0.0000 </r>
       <r>    7.4589    0.0000 </r>
       <r>    7.4603    0.0000 </r>
       <r>    7.4629    0.0000 </r>
       <r>    7.4642    0.0000 </r>
       <r>    7.4655    0.0000 </r>
       <r>    7.4679    0.0000 </r>
       <r>    7.4699    0.0000 </r>
       <r>    7.4734    0.0000 </r>
       <r>    7.4814    0.0000 </r>
       <r>    8.1607    0.0000 </r>
       <r>    8.1656    0.0000 </r>
       <r>    8.1679    0.0000 </r>
       <r>    8.1680    0.0000 </r>
       <r>    8.1684    0.0000 </r>
       <r>    8.1793    0.0000 </r>
       <r>    8.2763    0.0000 </r>
       <r>    8.2792    0.0000 </r>
       <r>    8.2795    0.0000 </r>
       <r>    8.2797    0.0000 </r>
       <r>    8.2807    0.0000 </r>
       <r>    8.2823    0.0000 </r>
       <r>    8.8833    0.0000 </r>
       <r>    8.8916    0.0000 </r>
       <r>    8.8929    0.0000 </r>
       <r>    8.8976    0.0000 </r>
       <r>    8.8985    0.0000 </r>
       <r>    8.9009    0.0000 </r>
       <r>    8.9011    0.0000 </r>
       <r>    8.9014    0.0000 </r>
       <r>    8.9022    0.0000 </r>
       <r>    8.9057    0.0000 </r>
       <r>    8.9062    0.0000 </r>
       <r>    8.9074    0.0000 </r>
       <r>    8.9081    0.0000 </r>
       <r>    8.9114    0.0000 </r>
       <r>    8.9135    0.0000 </r>
       <r>    8.9138    0.0000 </r>
       <r>    8.9159    0.0000 </r>
       <r>    8.9169    0.0000 </r>
       <r>    8.9179    0.0000 </r>
       <r>    8.9198    0.0000 </r>
       <r>    8.9218    0.0000 </r>
       <r>    8.9261    0.0000 </r>
       <r>    8.9345    0.0000 </r>
      </set>
      <set comment="kpoint 2">
       <r>  -21.3064    1.0000 </r>
       <r>  -21.3061    1.0000 </r>
       <r>  -21.3055    1.0000 </r>
       <r>  -21.3053    1.0000 </r>
       <r>  -21.3050    1.0000 </r>
       <r>  -21.3047    1.0000 </r>
       <r>  -21.3001    1.0000 </r>
       <r>  -21.2987    1.0000 </r>
       <r>  -21.2984    1.0000 </r>
       <r>  -21.2981    1.0000 </r>
       <r>  -21.2971    1.0000 </r>
       <r>  -21.2960    1.0000 </r>
       <r>  -21.2942    1.0000 </r>
       <r>  -21.2934    1.0000 </r>
       <r>  -21.2929    1.0000 </r>
       <r>  -21.2926    1.0000 </r>
       <r>  -21.2920    1.0000 </r>
       <r>  -21.2920    1.0000 </r>
       <r>  -21.2917    1.0000 </r>
       <r>  -21.2916    1.0000 </r>
       <r>  -21.2916    1.0000 </r>
       <r>  -21.2909    1.0000 </r>
       <r>  -21.2899    1.0000 </r>
       <r>  -21.2891    1.0000 </r>
       <r>  -21.2887    1.0000 </r>
       <r>  -21.2880    1.0000 </r>
       <r>  -21.2879    1.0000 </r>
       <r>  -21.2877    1.0000 </r>
       <r>  -21.2875    1.0000 </r>
       <r>  -21.2875    1.0000 </r>
       <r>  -21.2873    1.0000 </r>
       <r>  -21.2858    1.0000 </r>
       <r>  -21.2858    1.0000 </r>
       <r>  -21.2856    1.0000 </r>
       <r>  -21.2845    1.0000 </r>
       <r>  -21.2840    1.0000 </r>
       <r>  -21.2831    1.0000 </r>
       <r>  -21.2828    1.0000 </r>
       <r>  -21.2826    1.0000 </r>
       <r>  -21.2826    1.0000 </r>
       <r>  -21.2826    1.0000 </r>
       <r>  -21.2823    1.0000 </r>
       <r>  -21.2816    1.0000 </r>
       <r>  -21.2813    1.0000 </r>
       <r>  -21.2811    1.0000 </r>
       <r>  -21.2805    1.0000 </r>
       <r>  -21.2803    1.0000 </r>
       <r>  -21.2802    1.0000 </r>
       <r>  -21.2798    1.0000 </r>
       <r>  -21.2789    1.0000 </r>
       <r>  -21.2786    1.0000 </r>
       <r>  -21.2781    1.0000 </r>
       <r>  -21.2778    1.0000 </r>
       <r>  -21.2778    1.0000 </r>
       <r>  -21.2775    1.0000 </r>
       <r>  -21.2775    1.0000 </r>
       <r>  -21.2773    1.0000 </r>
       <r>  -21.2771    1.0000 </r>
       <r>  -21.2770    1.0000 </r>
       <r>  -21.2770    1.0000 </r>
       <r>  -21.2770    1.0000 </r>
       <r>  -21.2757    1.0000 </r>
       <r>  -21.2756    1.0000 </r>
       <r>  -21.2756    1.0000 </r>
       <r>  -21.2756    1.0000 </r>
       <r>  -21.2755    1.0000 </r>
       <r>  -21.2755    1.0000 </r>
       <r>  -21.2751    1.0000 </r>
       <r>  -21.2751    1.0000 </r>
       <r>  -21.2746    1.0000 </r>
       <r>  -21.2745    1.0000 </r>
       <r>  -21.2744    1.0000 </r>
       <r>  -21.2740    1.0000 </r>
       <r>  -21.2740    1.0000 </r>
       <r>  -21.2739    1.0000 </r>
       <r>  -21.2734    1.0000 </r>
       <r>  -21.2730    1.0000 </r>
       <r>  -21.2727    1.0000 </r>
       <r>  -21.2723    1.0000 </r>
       <r>  -21.2722    1.0000 </r>
       <r>  -21.2719    1.0000 </r>
       <r>  -21.2717    1.0000 </r>
       <r>  -21.2715    1.0000 </r>
       <r>  -21.2714    1.0000 </r>
       <r>  -21.2712    1.0000 </r>
       <r>  -21.2712    1.0000 </r>
       <r>  -21.2711    1.0000 </r>
       <r>  -21.2710    1.0000 </r>
       <r>  -21.2708    1.0000 </r>
       <r>  -21.2706    1.0000 </r>
       <r>  -21.2692    1.0000 </r>
       <r>  -21.2686    1.0000 </r>
       <r>  -21.2680    1.0000 </r>
       <r>  -21.2342    1.0000 </r>
       <r>  -21.2341    1.0000 </r>
       <r>  -21.2340    1.0000 </r>
       <r>  -13.2930    1.0000 </r>
       <r>  -13.2894    1.0000 </r>
       <r>  -13.1006    1.0000 </r>
       <r>  -13.0992    1.0000 </r>
       <r>  -13.0991    1.0000 </r>
       <r>  -13.0968    1.0000 </r>
       <r>  -13.0960    1.0000 </r>
       <r>  -13.0952    1.0000 </r>
       <r>  -13.0952    1.0000 </r>
       <r>  -13.0940    1.0000 </r>
       <r>  -13.0051    1.0000 </r>
       <r>  -13.0051    1.0000 </r>
       <r>  -13.0017    1.0000 </r>
       <r>  -13.0011    1.0000 </r>
       <r>  -13.0007    1.0000 </r>
       <r>  -13.0006    1.0000 </r>
       <r>  -12.9974    1.0000 </r>
       <r>  -12.9966    1.0000 </r>
       <r>  -12.9960    1.0000 </r>
       <r>  -12.9928    1.0000 </r>
       <r>  -12.9477    1.0000 </r>
       <r>  -12.9460    1.0000 </r>
       <r>  -12.9459    1.0000 </r>
       <r>  -12.9451    1.0000 </r>
       <r>  -12.9442    1.0000 </r>
       <r>  -12.9413    1.0000 </r>
       <r>  -12.9405    1.0000 </r>
       <r>  -12.9395    1.0000 </r>
       <r>  -12.9354    1.0000 </r>
       <r>  -12.9307    1.0000 </r>
       <r>  -12.9306    1.0000 </r>
       <r>  -12.9244    1.0000 </r>
       <r>   -2.5074    1.0000 </r>
       <r>   -2.5068    1.0000 </r>
       <r>   -2.5047    1.0000 </r>
       <r>   -2.5047    1.0000 </r>
       <r>   -2.5041    1.0000 </r>
       <r>   -2.5039    1.0000 </r>
       <r>   -2.5018    1.0000 </r>
       <r>   -2.5011    1.0000 </r>
       <r>   -2.2891    1.0000 </r>
       <r>   -2.2890    1.0000 </r>
       <r>   -2.2863    1.0000 </r>
       <r>   -2.2863    1.0000 </r>
       <r>   -2.2761    1.0000 </r>
       <r>   -2.2721    1.0000 </r>
       <r>   -2.1391    1.0000 </r>
       <r>   -2.1375    1.0000 </r>
       <r>   -2.1371    1.0000 </r>
       <r>   -2.1367    1.0000 </r>
       <r>   -2.1361    1.0000 </r>
       <r>   -2.1361    1.0000 </r>
       <r>   -2.1350    1.0000 </r>
       <r>   -2.1336    1.0000 </r>
       <r>   -1.9872    1.0000 </r>
       <r>   -1.9866    1.0000 </r>
       <r>   -1.9866    1.0000 </r>
       <r>   -1.9861    1.0000 </r>
       <r>   -1.9846    1.0000 </r>
       <r>   -1.9843    1.0000 </r>
       <r>   -1.9843    1.0000 </r>
       <r>   -1.9838    1.0000 </r>
       <r>   -1.8110    1.0000 </r>
       <r>   -1.8108    1.0000 </r>
       <r>   -1.8106    1.0000 </r>
       <r>   -1.8097    1.0000 </r>
       <r>   -1.8096    1.0000 </r>
       <r>   -1.8078    1.0000 </r>
       <r>   -1.8072    1.0000 </r>
       <r>   -1.8035    1.0000 </r>
       <r>   -1.5010    1.0000 </r>
       <r>   -1.5009    1.0000 </r>
       <r>   -1.4945    1.0000 </r>
       <r>   -1.4945    1.0000 </r>
       <r>   -1.3844    1.0000 </r>
       <r>   -1.3809    1.0000 </r>
       <r>   -1.3800    1.0000 </r>
       <r>   -1.3763    1.0000 </r>
       <r>   -1.2143    1.0000 </r>
       <r>   -1.2140    1.0000 </r>
       <r>   -1.2113    1.0000 </r>
       <r>   -1.2107    1.0000 </r>
       <r>   -1.1950    1.0000 </r>
       <r>   -1.1922    1.0000 </r>
       <r>   -1.1921    1.0000 </r>
       <r>   -1.1909    1.0000 </r>
       <r>   -1.1909    1.0000 </r>
       <r>   -1.1908    1.0000 </r>
       <r>   -1.1900    1.0000 </r>
       <r>   -1.1890    1.0000 </r>
       <r>   -1.1785    1.0000 </r>
       <r>   -1.1781    1.0000 </r>
       <r>   -1.1773    1.0000 </r>
       <r>   -1.1753    1.0000 </r>
       <r>   -1.1735    1.0000 </r>
       <r>   -1.1707    1.0000 </r>
       <r>   -1.1701    1.0000 </r>
       <r>   -1.1694    1.0000 </r>
       <r>   -1.1633    1.0000 </r>
       <r>   -1.1619    1.0000 </r>
       <r>   -1.1616    1.0000 </r>
       <r>   -1.1614    1.0000 </r>
       <r>   -1.1597    1.0000 </r>
       <r>   -1.1566    1.0000 </r>
       <r>   -1.1550    1.0000 </r>
       <r>   -1.1538    1.0000 </r>
       <r>   -1.0857    1.0000 </r>
       <r>   -1.0808    1.0000 </r>
       <r>   -0.9516    1.0000 </r>
       <r>   -0.9511    1.0000 </r>
       <r>   -0.9472    1.0000 </r>
       <r>   -0.9470    1.0000 </r>
       <r>   -0.9469    1.0000 </r>
       <r>   -0.9468    1.0000 </r>
       <r>   -0.9425    1.0000 </r>
       <r>   -0.9421    1.0000 </r>
       <r>   -0.9350    1.0000 </r>
       <r>   -0.9340    1.0000 </r>
       <r>   -0.9336    1.0000 </r>
       <r>   -0.9331    1.0000 </r>
       <r>   -0.9324    1.0000 </r>
       <r>   -0.9308    1.0000 </r>
       <r>   -0.9305    1.0000 </r>
       <r>   -0.9277    1.0000 </r>
       <r>   -0.7712    1.0000 </r>
       <r>   -0.7712    1.0000 </r>
       <r>   -0.7653    1.0000 </r>
       <r>   -0.7652    1.0000 </r>
       <r>    5.0188    0.0000 </r>
       <r>    5.0257    0.0000 </r>
       <r>    6.7106    0.0000 </r>
       <r>    6.7112    0.0000 </r>
       <r>    6.7140    0.0000 </r>
       <r>    6.7145    0.0000 </r>
       <r>    6.7159    0.0000 </r>
       <r>    6.7208    0.0000 </r>
       <r>    6.7219    0.0000 </r>
       <r>    6.7334    0.0000 </r>
       <r>    6.8383    0.0000 </r>
       <r>    6.8385    0.0000 </r>
       <r>    6.8387    0.0000 </r>
       <r>    6.8412    0.0000 </r>
       <r>    6.8437    0.0000 </r>
       <r>    6.8463    0.0000 </r>
       <r>    6.8497    0.0000 </r>
       <r>    6.8507    0.0000 </r>
       <r>    6.9684    0.0000 </r>
       <r>    6.9744    0.0000 </r>
       <r>    7.3562    0.0000 </r>
       <r>    7.3625    0.0000 </r>
       <r>    7.3626    0.0000 </r>
       <r>    7.3690    0.0000 </r>
       <r>    7.4789    0.0000 </r>
       <r>    7.4816    0.0000 </r>
       <r>    7.7110    0.0000 </r>
       <r>    7.7110    0.0000 </r>
       <r>    7.7181    0.0000 </r>
       <r>    7.7182    0.0000 </r>
       <r>    8.2560    0.0000 </r>
       <r>    8.2603    0.0000 </r>
       <r>    8.2630    0.0000 </r>
       <r>    8.2637    0.0000 </r>
       <r>    8.2653    0.0000 </r>
       <r>    8.2680    0.0000 </r>
       <r>    8.2685    0.0000 </r>
       <r>    8.2808    0.0000 </r>
       <r>    8.5255    0.0000 </r>
       <r>    8.5293    0.0000 </r>
       <r>    8.5297    0.0000 </r>
       <r>    8.5326    0.0000 </r>
       <r>    8.5343    0.0000 </r>
       <r>    8.5355    0.0000 </r>
       <r>    8.5362    0.0000 </r>
       <r>    8.5374    0.0000 </r>
       <r>    8.5379    0.0000 </r>
       <r>    8.5386    0.0000 </r>
       <r>    8.5403    0.0000 </r>
       <r>    8.5413    0.0000 </r>
       <r>    8.5420    0.0000 </r>
       <r>    8.5487    0.0000 </r>
       <r>    8.5525    0.0000 </r>
       <r>    8.5548    0.0000 </r>
       <r>    8.9439    0.0000 </r>
       <r>    8.9467    0.0000 </r>
       <r>    8.9467    0.0000 </r>
       <r>    8.9487    0.0000 </r>
       <r>    8.9511    0.0000 </r>
       <r>    8.9536    0.0000 </r>
       <r>    8.9554    0.0000 </r>
       <r>    8.9618    0.0000 </r>
       <r>    9.4933    0.0000 </r>
       <r>    9.5004    0.0000 </r>
      </set>
      <set comment="kpoint 3">
       <r>  -21.3072    1.0000 </r>
       <r>  -21.3072    1.0000 </r>
       <r>  -21.3062    1.0000 </r>
       <r>  -21.3038    1.0000 </r>
       <r>  -21.3024    1.0000 </r>
       <r>  -21.3024    1.0000 </r>
       <r>  -21.3000    1.0000 </r>
       <r>  -21.2996    1.0000 </r>
       <r>  -21.2996    1.0000 </r>
       <r>  -21.2995    1.0000 </r>
       <r>  -21.2995    1.0000 </r>
       <r>  -21.2966    1.0000 </r>
       <r>  -21.2947    1.0000 </r>
       <r>  -21.2947    1.0000 </r>
       <r>  -21.2927    1.0000 </r>
       <r>  -21.2923    1.0000 </r>
       <r>  -21.2917    1.0000 </r>
       <r>  -21.2917    1.0000 </r>
       <r>  -21.2912    1.0000 </r>
       <r>  -21.2912    1.0000 </r>
       <r>  -21.2907    1.0000 </r>
       <r>  -21.2907    1.0000 </r>
       <r>  -21.2897    1.0000 </r>
       <r>  -21.2895    1.0000 </r>
       <r>  -21.2891    1.0000 </r>
       <r>  -21.2887    1.0000 </r>
       <r>  -21.2882    1.0000 </r>
       <r>  -21.2882    1.0000 </r>
       <r>  -21.2875    1.0000 </r>
       <r>  -21.2862    1.0000 </r>
       <r>  -21.2849    1.0000 </r>
       <r>  -21.2849    1.0000 </r>
       <r>  -21.2848    1.0000 </r>
       <r>  -21.2845    1.0000 </r>
       <r>  -21.2843    1.0000 </r>
       <r>  -21.2839    1.0000 </r>
       <r>  -21.2838    1.0000 </r>
       <r>  -21.2838    1.0000 </r>
       <r>  -21.2838    1.0000 </r>
       <r>  -21.2823    1.0000 </r>
       <r>  -21.2823    1.0000 </r>
       <r>  -21.2814    1.0000 </r>
       <r>  -21.2814    1.0000 </r>
       <r>  -21.2806    1.0000 </r>
       <r>  -21.2805    1.0000 </r>
       <r>  -21.2805    1.0000 </r>
       <r>  -21.2804    1.0000 </r>
       <r>  -21.2803    1.0000 </r>
       <r>  -21.2803    1.0000 </r>
       <r>  -21.2801    1.0000 </r>
       <r>  -21.2801    1.0000 </r>
       <r>  -21.2793    1.0000 </r>
       <r>  -21.2782    1.0000 </r>
       <r>  -21.2782    1.0000 </r>
       <r>  -21.2774    1.0000 </r>
       <r>  -21.2771    1.0000 </r>
       <r>  -21.2770    1.0000 </r>
       <r>  -21.2769    1.0000 </r>
       <r>  -21.2768    1.0000 </r>
       <r>  -21.2768    1.0000 </r>
       <r>  -21.2767    1.0000 </r>
       <r>  -21.2765    1.0000 </r>
       <r>  -21.2763    1.0000 </r>
       <r>  -21.2762    1.0000 </r>
       <r>  -21.2760    1.0000 </r>
       <r>  -21.2758    1.0000 </r>
       <r>  -21.2758    1.0000 </r>
       <r>  -21.2753    1.0000 </r>
       <r>  -21.2743    1.0000 </r>
       <r>  -21.2743    1.0000 </r>
       <r>  -21.2742    1.0000 </r>
       <r>  -21.2741    1.0000 </r>
       <r>  -21.2739    1.0000 </r>
       <r>  -21.2739    1.0000 </r>
       <r>  -21.2733    1.0000 </r>
       <r>  -21.2733    1.0000 </r>
       <r>  -21.2732    1.0000 </r>
       <r>  -21.2727    1.0000 </r>
       <r>  -21.2724    1.0000 </r>
       <r>  -21.2724    1.0000 </r>
       <r>  -21.2718    1.0000 </r>
       <r>  -21.2718    1.0000 </r>
       <r>  -21.2715    1.0000 </r>
       <r>  -21.2715    1.0000 </r>
       <r>  -21.2714    1.0000 </r>
       <r>  -21.2714    1.0000 </r>
       <r>  -21.2709    1.0000 </r>
       <r>  -21.2707    1.0000 </r>
       <r>  -21.2707    1.0000 </r>
       <r>  -21.2704    1.0000 </r>
       <r>  -21.2685    1.0000 </r>
       <r>  -21.2685    1.0000 </r>
       <r>  -21.2684    1.0000 </r>
       <r>  -21.2342    1.0000 </r>
       <r>  -21.2340    1.0000 </r>
       <r>  -21.2340    1.0000 </r>
       <r>  -13.2913    1.0000 </r>
       <r>  -13.2912    1.0000 </r>
       <r>  -13.0998    1.0000 </r>
       <r>  -13.0987    1.0000 </r>
       <r>  -13.0975    1.0000 </r>
       <r>  -13.0969    1.0000 </r>
       <r>  -13.0969    1.0000 </r>
       <r>  -13.0965    1.0000 </r>
       <r>  -13.0955    1.0000 </r>
       <r>  -13.0942    1.0000 </r>
       <r>  -13.0032    1.0000 </r>
       <r>  -13.0021    1.0000 </r>
       <r>  -13.0006    1.0000 </r>
       <r>  -13.0006    1.0000 </r>
       <r>  -13.0006    1.0000 </r>
       <r>  -13.0006    1.0000 </r>
       <r>  -13.0006    1.0000 </r>
       <r>  -13.0003    1.0000 </r>
       <r>  -12.9945    1.0000 </r>
       <r>  -12.9945    1.0000 </r>
       <r>  -12.9481    1.0000 </r>
       <r>  -12.9468    1.0000 </r>
       <r>  -12.9438    1.0000 </r>
       <r>  -12.9438    1.0000 </r>
       <r>  -12.9432    1.0000 </r>
       <r>  -12.9432    1.0000 </r>
       <r>  -12.9414    1.0000 </r>
       <r>  -12.9411    1.0000 </r>
       <r>  -12.9311    1.0000 </r>
       <r>  -12.9297    1.0000 </r>
       <r>  -12.9296    1.0000 </r>
       <r>  -12.9288    1.0000 </r>
       <r>   -2.5055    1.0000 </r>
       <r>   -2.5051    1.0000 </r>
       <r>   -2.5043    1.0000 </r>
       <r>   -2.5043    1.0000 </r>
       <r>   -2.5043    1.0000 </r>
       <r>   -2.5043    1.0000 </r>
       <r>   -2.5036    1.0000 </r>
       <r>   -2.5032    1.0000 </r>
       <r>   -2.2877    1.0000 </r>
       <r>   -2.2877    1.0000 </r>
       <r>   -2.2877    1.0000 </r>
       <r>   -2.2876    1.0000 </r>
       <r>   -2.2741    1.0000 </r>
       <r>   -2.2741    1.0000 </r>
       <r>   -2.1383    1.0000 </r>
       <r>   -2.1375    1.0000 </r>
       <r>   -2.1366    1.0000 </r>
       <r>   -2.1366    1.0000 </r>
       <r>   -2.1362    1.0000 </r>
       <r>   -2.1362    1.0000 </r>
       <r>   -2.1353    1.0000 </r>
       <r>   -2.1344    1.0000 </r>
       <r>   -1.9864    1.0000 </r>
       <r>   -1.9861    1.0000 </r>
       <r>   -1.9854    1.0000 </r>
       <r>   -1.9854    1.0000 </r>
       <r>   -1.9854    1.0000 </r>
       <r>   -1.9854    1.0000 </r>
       <r>   -1.9848    1.0000 </r>
       <r>   -1.9844    1.0000 </r>
       <r>   -1.8147    1.0000 </r>
       <r>   -1.8098    1.0000 </r>
       <r>   -1.8090    1.0000 </r>
       <r>   -1.8088    1.0000 </r>
       <r>   -1.8088    1.0000 </r>
       <r>   -1.8085    1.0000 </r>
       <r>   -1.8076    1.0000 </r>
       <r>   -1.8030    1.0000 </r>
       <r>   -1.4978    1.0000 </r>
       <r>   -1.4978    1.0000 </r>
       <r>   -1.4978    1.0000 </r>
       <r>   -1.4977    1.0000 </r>
       <r>   -1.3807    1.0000 </r>
       <r>   -1.3805    1.0000 </r>
       <r>   -1.3804    1.0000 </r>
       <r>   -1.3802    1.0000 </r>
       <r>   -1.2129    1.0000 </r>
       <r>   -1.2129    1.0000 </r>
       <r>   -1.2125    1.0000 </r>
       <r>   -1.2125    1.0000 </r>
       <r>   -1.1929    1.0000 </r>
       <r>   -1.1918    1.0000 </r>
       <r>   -1.1917    1.0000 </r>
       <r>   -1.1908    1.0000 </r>
       <r>   -1.1908    1.0000 </r>
       <r>   -1.1908    1.0000 </r>
       <r>   -1.1906    1.0000 </r>
       <r>   -1.1894    1.0000 </r>
       <r>   -1.1785    1.0000 </r>
       <r>   -1.1748    1.0000 </r>
       <r>   -1.1743    1.0000 </r>
       <r>   -1.1743    1.0000 </r>
       <r>   -1.1740    1.0000 </r>
       <r>   -1.1737    1.0000 </r>
       <r>   -1.1735    1.0000 </r>
       <r>   -1.1704    1.0000 </r>
       <r>   -1.1639    1.0000 </r>
       <r>   -1.1603    1.0000 </r>
       <r>   -1.1600    1.0000 </r>
       <r>   -1.1595    1.0000 </r>
       <r>   -1.1586    1.0000 </r>
       <r>   -1.1586    1.0000 </r>
       <r>   -1.1585    1.0000 </r>
       <r>   -1.1553    1.0000 </r>
       <r>   -1.0832    1.0000 </r>
       <r>   -1.0831    1.0000 </r>
       <r>   -0.9486    1.0000 </r>
       <r>   -0.9469    1.0000 </r>
       <r>   -0.9469    1.0000 </r>
       <r>   -0.9469    1.0000 </r>
       <r>   -0.9469    1.0000 </r>
       <r>   -0.9468    1.0000 </r>
       <r>   -0.9461    1.0000 </r>
       <r>   -0.9455    1.0000 </r>
       <r>   -0.9369    1.0000 </r>
       <r>   -0.9354    1.0000 </r>
       <r>   -0.9326    1.0000 </r>
       <r>   -0.9326    1.0000 </r>
       <r>   -0.9320    1.0000 </r>
       <r>   -0.9316    1.0000 </r>
       <r>   -0.9291    1.0000 </r>
       <r>   -0.9272    1.0000 </r>
       <r>   -0.7683    1.0000 </r>
       <r>   -0.7683    1.0000 </r>
       <r>   -0.7681    1.0000 </r>
       <r>   -0.7680    1.0000 </r>
       <r>    5.0221    0.0000 </r>
       <r>    5.0224    0.0000 </r>
       <r>    6.7013    0.0000 </r>
       <r>    6.7148    0.0000 </r>
       <r>    6.7173    0.0000 </r>
       <r>    6.7180    0.0000 </r>
       <r>    6.7182    0.0000 </r>
       <r>    6.7187    0.0000 </r>
       <r>    6.7217    0.0000 </r>
       <r>    6.7330    0.0000 </r>
       <r>    6.8358    0.0000 </r>
       <r>    6.8413    0.0000 </r>
       <r>    6.8431    0.0000 </r>
       <r>    6.8432    0.0000 </r>
       <r>    6.8432    0.0000 </r>
       <r>    6.8438    0.0000 </r>
       <r>    6.8452    0.0000 </r>
       <r>    6.8510    0.0000 </r>
       <r>    6.9712    0.0000 </r>
       <r>    6.9715    0.0000 </r>
       <r>    7.3624    0.0000 </r>
       <r>    7.3626    0.0000 </r>
       <r>    7.3626    0.0000 </r>
       <r>    7.3628    0.0000 </r>
       <r>    7.4802    0.0000 </r>
       <r>    7.4803    0.0000 </r>
       <r>    7.7146    0.0000 </r>
       <r>    7.7146    0.0000 </r>
       <r>    7.7146    0.0000 </r>
       <r>    7.7147    0.0000 </r>
       <r>    8.2540    0.0000 </r>
       <r>    8.2641    0.0000 </r>
       <r>    8.2644    0.0000 </r>
       <r>    8.2648    0.0000 </r>
       <r>    8.2669    0.0000 </r>
       <r>    8.2672    0.0000 </r>
       <r>    8.2675    0.0000 </r>
       <r>    8.2778    0.0000 </r>
       <r>    8.5206    0.0000 </r>
       <r>    8.5309    0.0000 </r>
       <r>    8.5313    0.0000 </r>
       <r>    8.5325    0.0000 </r>
       <r>    8.5339    0.0000 </r>
       <r>    8.5355    0.0000 </r>
       <r>    8.5377    0.0000 </r>
       <r>    8.5384    0.0000 </r>
       <r>    8.5387    0.0000 </r>
       <r>    8.5389    0.0000 </r>
       <r>    8.5420    0.0000 </r>
       <r>    8.5430    0.0000 </r>
       <r>    8.5442    0.0000 </r>
       <r>    8.5460    0.0000 </r>
       <r>    8.5462    0.0000 </r>
       <r>    8.5564    0.0000 </r>
       <r>    8.9352    0.0000 </r>
       <r>    8.9488    0.0000 </r>
       <r>    8.9499    0.0000 </r>
       <r>    8.9508    0.0000 </r>
       <r>    8.9510    0.0000 </r>
       <r>    8.9518    0.0000 </r>
       <r>    8.9531    0.0000 </r>
       <r>    8.9670    0.0000 </r>
       <r>    9.4839    0.0000 </r>
       <r>    9.5047    0.0000 </r>
      </set>
      <set comment="kpoint 4">
       <r>  -21.3064    1.0000 </r>
       <r>  -21.3057    1.0000 </r>
       <r>  -21.3050    1.0000 </r>
       <r>  -21.3050    1.0000 </r>
       <r>  -21.3037    1.0000 </r>
       <r>  -21.3029    1.0000 </r>
       <r>  -21.2992    1.0000 </r>
       <r>  -21.2983    1.0000 </r>
       <r>  -21.2983    1.0000 </r>
       <r>  -21.2974    1.0000 </r>
       <r>  -21.2959    1.0000 </r>
       <r>  -21.2959    1.0000 </r>
       <r>  -21.2954    1.0000 </r>
       <r>  -21.2944    1.0000 </r>
       <r>  -21.2938    1.0000 </r>
       <r>  -21.2935    1.0000 </r>
       <r>  -21.2935    1.0000 </r>
       <r>  -21.2935    1.0000 </r>
       <r>  -21.2923    1.0000 </r>
       <r>  -21.2918    1.0000 </r>
       <r>  -21.2918    1.0000 </r>
       <r>  -21.2914    1.0000 </r>
       <r>  -21.2914    1.0000 </r>
       <r>  -21.2914    1.0000 </r>
       <r>  -21.2903    1.0000 </r>
       <r>  -21.2897    1.0000 </r>
       <r>  -21.2897    1.0000 </r>
       <r>  -21.2897    1.0000 </r>
       <r>  -21.2888    1.0000 </r>
       <r>  -21.2858    1.0000 </r>
       <r>  -21.2858    1.0000 </r>
       <r>  -21.2850    1.0000 </r>
       <r>  -21.2848    1.0000 </r>
       <r>  -21.2845    1.0000 </r>
       <r>  -21.2845    1.0000 </r>
       <r>  -21.2829    1.0000 </r>
       <r>  -21.2823    1.0000 </r>
[...]
      </set>
     </set>
    </set>
   </array>
  </eigenvalues>
  <separator name="orbital magnetization" >
   <v name="MAGDIPOLOUT">      0.00000000      0.00000000      0.00000000</v>
  </separator>
  <dos>
   <i name="efermi">     -0.56348822 </i>
   <total>
    <array>
     <dimension dim="1">gridpoints</dimension>
     <dimension dim="2">spin</dimension>
     <field>energy</field>
     <field>total</field>
     <field>integrated</field>
     <set>
      <set comment="spin 1">
       <r>   -22.8491     0.0000     0.0000 </r>
       <r>   -22.7361     0.0000     0.0000 </r>
       <r>   -22.6231     0.0000     0.0000 </r>
       <r>   -22.5101     0.0000     0.0000 </r>
       <r>   -22.3972     0.0000     0.0000 </r>
       <r>   -22.2842     0.0000     0.0000 </r>
       <r>   -22.1712     0.0000     0.0000 </r>
       <r>   -22.0582     0.0000     0.0000 </r>
       <r>   -21.9452     0.0000     0.0000 </r>
       <r>   -21.8323     0.0000     0.0000 </r>
       <r>   -21.7193     0.0000     0.0000 </r>
       <r>   -21.6063     0.0000     0.0000 </r>
       <r>   -21.4933     0.0000     0.0000 </r>
       <r>   -21.3803     0.0000     0.0000 </r>
       <r>   -21.2674  1333.0026   150.6047 </r>
       <r>   -21.1544   366.3902   192.0000 </r>
       <r>   -21.0414     0.0000   192.0000 </r>
       <r>   -20.9284     0.0000   192.0000 </r>
       <r>   -20.8154     0.0000   192.0000 </r>
       <r>   -20.7024     0.0000   192.0000 </r>
       <r>   -20.5895     0.0000   192.0000 </r>
       <r>   -20.4765     0.0000   192.0000 </r>
       <r>   -20.3635     0.0000   192.0000 </r>
       <r>   -20.2505     0.0000   192.0000 </r>
       <r>   -20.1375     0.0000   192.0000 </r>
       <r>   -20.0246     0.0000   192.0000 </r>
       <r>   -19.9116     0.0000   192.0000 </r>
       <r>   -19.7986     0.0000   192.0000 </r>
       <r>   -19.6856     0.0000   192.0000 </r>
       <r>   -19.5726     0.0000   192.0000 </r>
       <r>   -19.4596     0.0000   192.0000 </r>
       <r>   -19.3467     0.0000   192.0000 </r>
       <r>   -19.2337     0.0000   192.0000 </r>
       <r>   -19.1207     0.0000   192.0000 </r>
       <r>   -19.0077     0.0000   192.0000 </r>
       <r>   -18.8947     0.0000   192.0000 </r>
       <r>   -18.7818     0.0000   192.0000 </r>
       <r>   -18.6688     0.0000   192.0000 </r>
       <r>   -18.5558     0.0000   192.0000 </r>
       <r>   -18.4428     0.0000   192.0000 </r>
       <r>   -18.3298     0.0000   192.0000 </r>
       <r>   -18.2169     0.0000   192.0000 </r>
       <r>   -18.1039     0.0000   192.0000 </r>
       <r>   -17.9909     0.0000   192.0000 </r>
       <r>   -17.8779     0.0000   192.0000 </r>
       <r>   -17.7649     0.0000   192.0000 </r>
       <r>   -17.6519     0.0000   192.0000 </r>
       <r>   -17.5390     0.0000   192.0000 </r>
       <r>   -17.4260     0.0000   192.0000 </r>
       <r>   -17.3130     0.0000   192.0000 </r>
       <r>   -17.2000     0.0000   192.0000 </r>
       <r>   -17.0870     0.0000   192.0000 </r>
       <r>   -16.9741     0.0000   192.0000 </r>
       <r>   -16.8611     0.0000   192.0000 </r>
       <r>   -16.7481     0.0000   192.0000 </r>
       <r>   -16.6351     0.0000   192.0000 </r>
       <r>   -16.5221     0.0000   192.0000 </r>
       <r>   -16.4091     0.0000   192.0000 </r>
       <r>   -16.2962     0.0000   192.0000 </r>
       <r>   -16.1832     0.0000   192.0000 </r>
       <r>   -16.0702     0.0000   192.0000 </r>
       <r>   -15.9572     0.0000   192.0000 </r>
       <r>   -15.8442     0.0000   192.0000 </r>
       <r>   -15.7313     0.0000   192.0000 </r>
       <r>   -15.6183     0.0000   192.0000 </r>
       <r>   -15.5053     0.0000   192.0000 </r>
       <r>   -15.3923     0.0000   192.0000 </r>
       <r>   -15.2793     0.0000   192.0000 </r>
       <r>   -15.1664     0.0000   192.0000 </r>
       <r>   -15.0534     0.0000   192.0000 </r>
       <r>   -14.9404     0.0000   192.0000 </r>
       <r>   -14.8274     0.0000   192.0000 </r>
       <r>   -14.7144     0.0000   192.0000 </r>
       <r>   -14.6014     0.0000   192.0000 </r>
       <r>   -14.4885     0.0000   192.0000 </r>
       <r>   -14.3755     0.0000   192.0000 </r>
       <r>   -14.2625     0.0000   192.0000 </r>
       <r>   -14.1495     0.0000   192.0000 </r>
       <r>   -14.0365     0.0000   192.0000 </r>
       <r>   -13.9236     0.0000   192.0000 </r>
       <r>   -13.8106     0.0000   192.0000 </r>
       <r>   -13.6976     0.0000   192.0000 </r>
       <r>   -13.5846     0.0000   192.0000 </r>
       <r>   -13.4716     0.0000   192.0000 </r>
       <r>   -13.3586     1.0647   192.1203 </r>
       <r>   -13.2457    18.7766   194.2417 </r>
       <r>   -13.1327    48.6032   199.7332 </r>
       <r>   -13.0197   124.1804   213.7637 </r>
       <r>   -12.9067   368.5126   255.3994 </r>
       <r>   -12.7937     5.3084   256.0000 </r>
       <r>   -12.6808     0.0000   256.0000 </r>
       <r>   -12.5678     0.0000   256.0000 </r>
       <r>   -12.4548     0.0000   256.0000 </r>
       <r>   -12.3418     0.0000   256.0000 </r>
       <r>   -12.2288     0.0000   256.0000 </r>
       <r>   -12.1158     0.0000   256.0000 </r>
       <r>   -12.0029     0.0000   256.0000 </r>
       <r>   -11.8899     0.0000   256.0000 </r>
       <r>   -11.7769     0.0000   256.0000 </r>
       <r>   -11.6639     0.0000   256.0000 </r>
       <r>   -11.5509     0.0000   256.0000 </r>
       <r>   -11.4380     0.0000   256.0000 </r>
       <r>   -11.3250     0.0000   256.0000 </r>
       <r>   -11.2120     0.0000   256.0000 </r>
       <r>   -11.0990     0.0000   256.0000 </r>
       <r>   -10.9860     0.0000   256.0000 </r>
       <r>   -10.8731     0.0000   256.0000 </r>
       <r>   -10.7601     0.0000   256.0000 </r>
       <r>   -10.6471     0.0000   256.0000 </r>
       <r>   -10.5341     0.0000   256.0000 </r>
       <r>   -10.4211     0.0000   256.0000 </r>
       <r>   -10.3081     0.0000   256.0000 </r>
       <r>   -10.1952     0.0000   256.0000 </r>
       <r>   -10.0822     0.0000   256.0000 </r>
       <r>    -9.9692     0.0000   256.0000 </r>
       <r>    -9.8562     0.0000   256.0000 </r>
       <r>    -9.7432     0.0000   256.0000 </r>
       <r>    -9.6303     0.0000   256.0000 </r>
       <r>    -9.5173     0.0000   256.0000 </r>
       <r>    -9.4043     0.0000   256.0000 </r>
       <r>    -9.2913     0.0000   256.0000 </r>
       <r>    -9.1783     0.0000   256.0000 </r>
       <r>    -9.0653     0.0000   256.0000 </r>
       <r>    -8.9524     0.0000   256.0000 </r>
       <r>    -8.8394     0.0000   256.0000 </r>
       <r>    -8.7264     0.0000   256.0000 </r>
       <r>    -8.6134     0.0000   256.0000 </r>
       <r>    -8.5004     0.0000   256.0000 </r>
       <r>    -8.3875     0.0000   256.0000 </r>
       <r>    -8.2745     0.0000   256.0000 </r>
       <r>    -8.1615     0.0000   256.0000 </r>
       <r>    -8.0485     0.0000   256.0000 </r>
       <r>    -7.9355     0.0000   256.0000 </r>
       <r>    -7.8226     0.0000   256.0000 </r>
       <r>    -7.7096     0.0000   256.0000 </r>
       <r>    -7.5966     0.0000   256.0000 </r>
       <r>    -7.4836     0.0000   256.0000 </r>
       <r>    -7.3706     0.0000   256.0000 </r>
       <r>    -7.2576     0.0000   256.0000 </r>
       <r>    -7.1447     0.0000   256.0000 </r>
       <r>    -7.0317     0.0000   256.0000 </r>
       <r>    -6.9187     0.0000   256.0000 </r>
       <r>    -6.8057     0.0000   256.0000 </r>
       <r>    -6.6927     0.0000   256.0000 </r>
       <r>    -6.5798     0.0000   256.0000 </r>
       <r>    -6.4668     0.0000   256.0000 </r>
       <r>    -6.3538     0.0000   256.0000 </r>
       <r>    -6.2408     0.0000   256.0000 </r>
       <r>    -6.1278     0.0000   256.0000 </r>
       <r>    -6.0148     0.0000   256.0000 </r>
       <r>    -5.9019     0.0000   256.0000 </r>
       <r>    -5.7889     0.0000   256.0000 </r>
       <r>    -5.6759     0.0000   256.0000 </r>
       <r>    -5.5629     0.0000   256.0000 </r>
       <r>    -5.4499     0.0000   256.0000 </r>
       <r>    -5.3370     0.0000   256.0000 </r>
       <r>    -5.2240     0.0000   256.0000 </r>
       <r>    -5.1110     0.0000   256.0000 </r>
       <r>    -4.9980     0.0000   256.0000 </r>
       <r>    -4.8850     0.0000   256.0000 </r>
       <r>    -4.7721     0.0000   256.0000 </r>
       <r>    -4.6591     0.0000   256.0000 </r>
       <r>    -4.5461     0.0000   256.0000 </r>
       <r>    -4.4331     0.0000   256.0000 </r>
       <r>    -4.3201     0.0000   256.0000 </r>
       <r>    -4.2071     0.0000   256.0000 </r>
       <r>    -4.0942     0.0000   256.0000 </r>
       <r>    -3.9812     0.0000   256.0000 </r>
       <r>    -3.8682     0.0000   256.0000 </r>
       <r>    -3.7552     0.0000   256.0000 </r>
       <r>    -3.6422     0.0000   256.0000 </r>
       <r>    -3.5293     0.0000   256.0000 </r>
       <r>    -3.4163     0.0000   256.0000 </r>
       <r>    -3.3033     0.0000   256.0000 </r>
       <r>    -3.1903     0.0000   256.0000 </r>
       <r>    -3.0773     0.0000   256.0000 </r>
       <r>    -2.9643     0.0000   256.0000 </r>
       <r>    -2.8514     0.0000   256.0000 </r>
       <r>    -2.7384     0.0291   256.0033 </r>
       <r>    -2.6254     8.8219   257.0000 </r>
       <r>    -2.5124    15.1233   258.7087 </r>
       <r>    -2.3994    88.3693   268.6928 </r>
       <r>    -2.2865    79.4386   277.6678 </r>
       <r>    -2.1735   158.5179   295.5774 </r>
       <r>    -2.0605    76.7608   304.2500 </r>
       <r>    -1.9475    54.3588   310.3915 </r>
       <r>    -1.8345    54.8077   316.5838 </r>
       <r>    -1.7215    81.1302   325.7500 </r>
       <r>    -1.6086     0.0000   325.7500 </r>
       <r>    -1.4956    47.7582   331.1458 </r>
       <r>    -1.3826   211.9841   355.0961 </r>
       <r>    -1.2696    31.9057   358.7008 </r>
       <r>    -1.1566   237.5992   385.5452 </r>
       <r>    -1.0437   149.8077   402.4708 </r>
       <r>    -0.9307   244.0402   430.0430 </r>
       <r>    -0.8177    74.2476   438.4316 </r>
       <r>    -0.7047    77.8526   447.2275 </r>
       <r>    -0.5917     6.8374   448.0000 </r>
       <r>    -0.4788     0.0000   448.0000 </r>
       <r>    -0.3658     0.0000   448.0000 </r>
       <r>    -0.2528     0.0000   448.0000 </r>
       <r>    -0.1398     0.0000   448.0000 </r>
       <r>    -0.0268     0.0000   448.0000 </r>
       <r>     0.0862     0.0000   448.0000 </r>
       <r>     0.1991     0.0000   448.0000 </r>
       <r>     0.3121     0.0000   448.0000 </r>
       <r>     0.4251     0.0000   448.0000 </r>
       <r>     0.5381     0.0000   448.0000 </r>
       <r>     0.6511     0.0000   448.0000 </r>
       <r>     0.7640     0.0000   448.0000 </r>
       <r>     0.8770     0.0000   448.0000 </r>
       <r>     0.9900     0.0000   448.0000 </r>
       <r>     1.1030     0.0000   448.0000 </r>
       <r>     1.2160     0.0000   448.0000 </r>
       <r>     1.3290     0.0000   448.0000 </r>
       <r>     1.4419     0.0000   448.0000 </r>
       <r>     1.5549     0.0000   448.0000 </r>
       <r>     1.6679     0.0000   448.0000 </r>
       <r>     1.7809     0.0000   448.0000 </r>
       <r>     1.8939     0.0000   448.0000 </r>
       <r>     2.0068     0.0000   448.0000 </r>
       <r>     2.1198     0.0000   448.0000 </r>
       <r>     2.2328     0.0000   448.0000 </r>
       <r>     2.3458     0.0000   448.0000 </r>
       <r>     2.4588     0.0000   448.0000 </r>
       <r>     2.5717     0.0000   448.0000 </r>
       <r>     2.6847     0.0000   448.0000 </r>
       <r>     2.7977     0.0000   448.0000 </r>
       <r>     2.9107     0.0000   448.0000 </r>
       <r>     3.0237     0.0000   448.0000 </r>
       <r>     3.1367     0.0000   448.0000 </r>
       <r>     3.2496     0.0000   448.0000 </r>
       <r>     3.3626     0.0000   448.0000 </r>
       <r>     3.4756     0.0000   448.0000 </r>
       <r>     3.5886     0.0000   448.0000 </r>
       <r>     3.7016     0.0000   448.0000 </r>
       <r>     3.8145     0.0000   448.0000 </r>
       <r>     3.9275     0.0000   448.0000 </r>
       <r>     4.0405     0.0000   448.0000 </r>
       <r>     4.1535     0.0000   448.0000 </r>
       <r>     4.2665     0.0000   448.0000 </r>
       <r>     4.3795     2.2066   448.2493 </r>
       <r>     4.4924     0.0061   448.2500 </r>
       <r>     4.6054     0.0000   448.2500 </r>
       <r>     4.7184     0.0000   448.2500 </r>
       <r>     4.8314     0.0000   448.2500 </r>
       <r>     4.9444     0.0000   448.2500 </r>
       <r>     5.0573    13.1773   449.7388 </r>
       <r>     5.1703     0.0993   449.7500 </r>
       <r>     5.2833     0.0000   449.7500 </r>
       <r>     5.3963     0.0000   449.7500 </r>
       <r>     5.5093     0.5788   449.8154 </r>
       <r>     5.6223    25.9742   452.7500 </r>
       <r>     5.7352     0.0000   452.7500 </r>
       <r>     5.8482    15.1666   454.4635 </r>
       <r>     5.9612     2.5354   454.7500 </r>
       <r>     6.0742     0.0000   454.7500 </r>
       <r>     6.1872     0.0000   454.7500 </r>
       <r>     6.3001     0.0001   454.7500 </r>
       <r>     6.4131    13.3560   456.2590 </r>
       <r>     6.5261     8.7707   457.2500 </r>
       <r>     6.6391    26.8706   460.2859 </r>
       <r>     6.7521    78.4102   469.1448 </r>
       <r>     6.8650    56.8115   475.5635 </r>
       <r>     6.9780    12.8664   477.0171 </r>
       <r>     7.0910     4.2738   477.5000 </r>
       <r>     7.2040     2.8085   477.8173 </r>
       <r>     7.3170     3.8537   478.2527 </r>
       <r>     7.4300    78.6039   487.1335 </r>
       <r>     7.5429   161.3678   505.3651 </r>
       <r>     7.6559    12.2565   506.7501 </r>
       <r>     7.7689    26.5502   509.7497 </r>
       <r>     7.8819     0.0131   509.7515 </r>
       <r>     7.9949    53.0915   515.7498 </r>
       <r>     8.1078     0.0003   515.7500 </r>
       <r>     8.2208    13.3624   517.2597 </r>
       <r>     8.3338    92.6341   527.7258 </r>
       <r>     8.4468     0.2130   527.7500 </r>
       <r>     8.5598   126.3436   542.0245 </r>
       <r>     8.6728    32.9745   545.7500 </r>
       <r>     8.7857     0.0000   545.7500 </r>
       <r>     8.8987    64.5280   553.0405 </r>
       <r>     9.0117   129.5565   567.6780 </r>
       <r>     9.1247    16.1255   569.5000 </r>
       <r>     9.2377    11.6313   570.8141 </r>
       <r>     9.3506    32.6237   574.5000 </r>
       <r>     9.4636     0.2712   574.5306 </r>
       <r>     9.5766    13.0053   576.0000 </r>
       <r>     9.6896     0.0000   576.0000 </r>
       <r>     9.8026     0.0000   576.0000 </r>
       <r>     9.9155     0.0000   576.0000 </r>
       <r>    10.0285     0.0000   576.0000 </r>
       <r>    10.1415     0.0000   576.0000 </r>
       <r>    10.2545     0.0000   576.0000 </r>
       <r>    10.3675     0.0000   576.0000 </r>
       <r>    10.4805     0.0000   576.0000 </r>
       <r>    10.5934     0.0000   576.0000 </r>
       <r>    10.7064     0.0000   576.0000 </r>
       <r>    10.8194     0.0000   576.0000 </r>
       <r>    10.9324     0.0000   576.0000 </r>
       <r>    11.0454     0.0000   576.0000 </r>
      </set>
     </set>
    </array>
   </total>
  </dos>
 </calculation>
 <structure name="finalpos" >
  <crystal>
   <varray name="basis" >
    <v>      11.20400236       0.00000000       0.00000000 </v>
    <v>       0.00000000      11.20400236       0.00000000 </v>
    <v>       0.00000000       0.00000000      11.20400236 </v>
   </varray>
   <i name="volume">   1406.43470641 </i>
   <varray name="rec_basis" >
    <v>       0.08925382       0.00000000       0.00000000 </v>
    <v>       0.00000000       0.08925382       0.00000000 </v>
    <v>       0.00000000       0.00000000       0.08925382 </v>
   </varray>
  </crystal>
  <varray name="positions" >
   <v>       0.00000000       0.00000000       0.00000000 </v>
   <v>       0.25000000       0.25000000       0.00000000 </v>
   <v>       0.25000000       0.00000000       0.25000000 </v>
   <v>       0.00000000       0.25000000       0.25000000 </v>
   <v>       0.00000000       0.00000000       0.50000000 </v>
   <v>       0.25000000       0.25000000       0.50000000 </v>
   <v>       0.25000000       0.00000000       0.75000000 </v>
   <v>       0.00000000       0.25000000       0.75000000 </v>
   <v>       0.00000000       0.50000000       0.00000000 </v>
   <v>       0.25000000       0.75000000       0.00000000 </v>
   <v>       0.25000000       0.50000000       0.25000000 </v>
   <v>       0.00000000       0.75000000       0.25000000 </v>
   <v>       0.00000000       0.50000000       0.50000000 </v>
   <v>       0.25000000       0.75000000       0.50000000 </v>
   <v>       0.25000000       0.50000000       0.75000000 </v>
   <v>       0.00000000       0.75000000       0.75000000 </v>
   <v>       0.50000000       0.00000000       0.00000000 </v>
   <v>       0.75000000       0.25000000       0.00000000 </v>
   <v>       0.75000000       0.00000000       0.25000000 </v>
   <v>       0.50000000       0.25000000       0.25000000 </v>
   <v>       0.50000000       0.00000000       0.50000000 </v>
   <v>       0.75000000       0.25000000       0.50000000 </v>
   <v>       0.75000000       0.00000000       0.75000000 </v>
   <v>       0.50000000       0.25000000       0.75000000 </v>
   <v>       0.50000000       0.50000000       0.00000000 </v>
   <v>       0.75000000       0.75000000       0.00000000 </v>
   <v>       0.75000000       0.50000000       0.25000000 </v>
   <v>       0.50000000       0.75000000       0.25000000 </v>
   <v>       0.50000000       0.50000000       0.50000000 </v>
   <v>       0.75000000       0.75000000       0.50000000 </v>
   <v>       0.75000000       0.50000000       0.75000000 </v>
   <v>       0.50000000       0.75000000       0.75000000 </v>
   <v>       0.24732239       0.25000000       0.25000000 </v>
   <v>       0.00000000       0.00267761       0.25000000 </v>
   <v>       0.00000000       0.25000000       0.00000000 </v>
   <v>       0.25000000       0.00000000       0.00000000 </v>
   <v>       0.25000000       0.25000000       0.75000000 </v>
   <v>       0.00000000       0.00000000       0.75000000 </v>
   <v>       0.00000000       0.25000000       0.50000000 </v>
   <v>       0.25000000       0.00000000       0.50000000 </v>
   <v>       0.25000000       0.75000000       0.25000000 </v>
   <v>       0.00000000       0.50000000       0.25000000 </v>
   <v>       0.00000000       0.75000000       0.00000000 </v>
   <v>       0.25000000       0.50000000       0.00000000 </v>
   <v>       0.25000000       0.75000000       0.75000000 </v>
   <v>       0.00000000       0.50000000       0.75000000 </v>
   <v>       0.00000000       0.75000000       0.50000000 </v>
   <v>       0.25000000       0.50000000       0.50000000 </v>
   <v>       0.75000000       0.25000000       0.25000000 </v>
   <v>       0.50000000       0.00000000       0.25000000 </v>
   <v>       0.50000000       0.25000000       0.00000000 </v>
   <v>       0.75000000       0.00000000       0.00000000 </v>
   <v>       0.75000000       0.25000000       0.75000000 </v>
   <v>       0.50000000       0.00000000       0.75000000 </v>
   <v>       0.50000000       0.25000000       0.50000000 </v>
   <v>       0.75000000       0.00000000       0.50000000 </v>
   <v>       0.75000000       0.75000000       0.25000000 </v>
   <v>       0.50000000       0.50000000       0.25000000 </v>
   <v>       0.50000000       0.75000000       0.00000000 </v>
   <v>       0.75000000       0.50000000       0.00000000 </v>
   <v>       0.75000000       0.75000000       0.75000000 </v>
   <v>       0.50000000       0.50000000       0.75000000 </v>
   <v>       0.50000000       0.75000000       0.50000000 </v>
   <v>       0.75000000       0.50000000       0.50000000 </v>
  </varray>
 </structure>
</modeling>
