   8   8   0   0
  0.2006308E+02  0.5434537E-09  0.5434537E-09  0.5434537E-09  0.5000000E-15
  1.000000000000000E-004
  CAR 
 unknown system                          
     11.35057333     -7.04144039  301      5.90193926      1.00000000
     -7.041  0.0000E+00  0.0000E+00
     -6.980  0.0000E+00  0.0000E+00
     -6.919  0.0000E+00  0.0000E+00
     -6.858  0.0000E+00  0.0000E+00
     -6.796  0.0000E+00  0.0000E+00
     -6.735  0.0000E+00  0.0000E+00
     -6.674  0.0000E+00  0.0000E+00
     -6.612  0.0000E+00  0.0000E+00
     -6.551  0.0000E+00  0.0000E+00
     -6.490  0.0000E+00  0.0000E+00
     -6.428  0.0000E+00  0.0000E+00
     -6.367  0.0000E+00  0.0000E+00
     -6.306  0.6656E-15  0.4080E-16
     -6.244  0.2958E-05  0.1814E-06
     -6.183  0.9579E-03  0.5891E-04
     -6.122  0.5859E-04  0.6250E-04
     -6.061  0.1729E-11  0.6250E-04
     -5.999  0.5991E-08  0.6250E-04
     -5.938  0.2057E-02  0.1886E-03
     -5.877  0.4059E-02  0.4375E-03
     -5.815  0.2794E-06  0.4375E-03
     -5.754  0.1113E-11  0.4375E-03
     -5.693  0.2524E-03  0.4530E-03
     -5.631  0.1185E-01  0.1179E-02
     -5.570  0.1332E-03  0.1187E-02
     -5.509  0.2068E-12  0.1188E-02
     -5.447  0.7935E-05  0.1188E-02
     -5.386  0.7266E-02  0.1633E-02
     -5.325  0.8817E-03  0.1687E-02
     -5.264  0.1029E-09  0.1687E-02
     -5.202  0.3029E-10  0.1688E-02
     -5.141  0.4964E-03  0.1718E-02
     -5.080  0.5610E-02  0.2062E-02
     -5.018  0.1011E-04  0.2062E-02
     -4.957  0.2968E-10  0.2063E-02
     -4.896  0.1258E-02  0.2140E-02
     -4.834  0.2313E-01  0.3557E-02
     -4.773  0.8388E-04  0.3562E-02
     -4.712  0.2032E-07  0.3563E-02
     -4.650  0.7934E-02  0.4049E-02
     -4.589  0.1653E-01  0.5062E-02
     -4.528  0.1282E-05  0.5063E-02
     -4.467  0.0000E+00  0.5063E-02
     -4.405  0.0000E+00  0.5063E-02
     -4.344  0.0000E+00  0.5063E-02
     -4.283  0.0000E+00  0.5063E-02
     -4.221  0.1629E-07  0.5063E-02
     -4.160  0.4396E-02  0.5332E-02
     -4.099  0.7837E-02  0.5812E-02
     -4.037  0.3604E-02  0.6033E-02
     -3.976  0.2085E-01  0.7312E-02
     -3.915  0.1265E-04  0.7313E-02
     -3.853  0.2818E-02  0.7485E-02
     -3.792  0.6323E-02  0.7873E-02
     -3.731  0.1053E-02  0.7937E-02
     -3.670  0.6644E-07  0.7938E-02
     -3.608  0.1016E-01  0.8561E-02
     -3.547  0.1430E-01  0.9437E-02
     -3.486  0.6994E-02  0.9866E-02
     -3.424  0.1747E-01  0.1094E-01
     -3.363  0.4258E-04  0.1094E-01
     -3.302  0.2244E-01  0.1232E-01
     -3.240  0.1982E-02  0.1244E-01
     -3.179  0.1205E-09  0.1244E-01
     -3.118  0.4045E-04  0.1244E-01
     -3.057  0.2244E-01  0.1382E-01
     -2.995  0.1986E-02  0.1394E-01
     -2.934  0.1212E-09  0.1394E-01
     -2.873  0.0000E+00  0.1394E-01
     -2.811  0.0000E+00  0.1394E-01
     -2.750  0.0000E+00  0.1394E-01
     -2.689  0.0000E+00  0.1394E-01
     -2.627  0.0000E+00  0.1394E-01
     -2.566  0.3212E-15  0.1394E-01
     -2.505  0.8685E-05  0.1394E-01
     -2.443  0.1068E-01  0.1459E-01
     -2.382  0.1544E-02  0.1469E-01
     -2.321  0.2609E-09  0.1469E-01
     -2.260  0.0000E+00  0.1469E-01
     -2.198  0.0000E+00  0.1469E-01
     -2.137  0.5383E-11  0.1469E-01
     -2.076  0.2822E-03  0.1470E-01
     -2.014  0.5839E-02  0.1506E-01
     -1.953  0.2208E-01  0.1642E-01
     -1.892  0.5558E-02  0.1676E-01
     -1.830  0.9055E-02  0.1731E-01
     -1.769  0.1367E-05  0.1731E-01
     -1.708  0.0000E+00  0.1731E-01
     -1.646  0.0000E+00  0.1731E-01
     -1.585  0.0000E+00  0.1731E-01
     -1.524  0.8890E-07  0.1731E-01
     -1.463  0.6114E-02  0.1769E-01
     -1.401  0.6120E-02  0.1806E-01
     -1.340  0.8939E-07  0.1806E-01
     -1.279  0.3788E-05  0.1806E-01
     -1.217  0.3623E-02  0.1828E-01
     -1.156  0.4513E-03  0.1831E-01
     -1.095  0.7972E-06  0.1831E-01
     -1.033  0.1550E-01  0.1926E-01
     -0.972  0.8962E-02  0.1981E-01
     -0.911  0.3565E-07  0.1981E-01
     -0.849  0.1198E-04  0.1981E-01
     -0.788  0.2080E-01  0.2109E-01
     -0.727  0.3658E-02  0.2131E-01
     -0.666  0.3509E-03  0.2133E-01
     -0.604  0.4627E-01  0.2417E-01
     -0.543  0.2315E-02  0.2431E-01
     -0.482  0.1021E-09  0.2431E-01
     -0.420  0.0000E+00  0.2431E-01
     -0.359  0.0000E+00  0.2431E-01
     -0.298  0.4868E-14  0.2431E-01
     -0.236  0.4265E-04  0.2432E-01
     -0.175  0.2250E-01  0.2569E-01
     -0.114  0.1926E-02  0.2581E-01
     -0.052  0.3569E-09  0.2581E-01
      0.009  0.9262E-03  0.2587E-01
      0.070  0.5188E-02  0.2619E-01
      0.131  0.2908E-05  0.2619E-01
      0.193  0.1615E-11  0.2619E-01
      0.254  0.2894E-03  0.2621E-01
      0.315  0.1183E-01  0.2693E-01
      0.377  0.1144E-03  0.2694E-01
      0.438  0.6720E-03  0.2698E-01
      0.499  0.2360E-01  0.2843E-01
      0.561  0.1922E-03  0.2844E-01
      0.622  0.1800E-12  0.2844E-01
      0.683  0.0000E+00  0.2844E-01
      0.745  0.0000E+00  0.2844E-01
      0.806  0.0000E+00  0.2844E-01
      0.867  0.0000E+00  0.2844E-01
      0.928  0.0000E+00  0.2844E-01
      0.990  0.0000E+00  0.2844E-01
      1.051  0.0000E+00  0.2844E-01
      1.112  0.0000E+00  0.2844E-01
      1.174  0.0000E+00  0.2844E-01
      1.235  0.0000E+00  0.2844E-01
      1.296  0.0000E+00  0.2844E-01
      1.358  0.1561E-06  0.2844E-01
      1.419  0.6726E-02  0.2885E-01
      1.480  0.2586E-01  0.3043E-01
      1.541  0.2858E-01  0.3219E-01
      1.603  0.8196E-05  0.3219E-01
      1.664  0.0000E+00  0.3219E-01
      1.725  0.2281E-13  0.3219E-01
      1.787  0.4335E-04  0.3219E-01
      1.848  0.8416E-02  0.3271E-01
      1.909  0.1189E-01  0.3343E-01
      1.971  0.5210E-02  0.3375E-01
      2.032  0.7068E-02  0.3419E-01
      2.093  0.2134E-06  0.3419E-01
      2.155  0.2310E-04  0.3419E-01
      2.216  0.2179E-01  0.3553E-01
      2.277  0.1431E-01  0.3640E-01
      2.338  0.4175E-01  0.3896E-01
      2.400  0.2548E-01  0.4052E-01
      2.461  0.6354E-03  0.4056E-01
      2.522  0.4178E-11  0.4056E-01
      2.584  0.0000E+00  0.4056E-01
      2.645  0.0000E+00  0.4056E-01
      2.706  0.0000E+00  0.4056E-01
      2.768  0.0000E+00  0.4056E-01
      2.829  0.7704E-09  0.4056E-01
      2.890  0.1259E-02  0.4064E-01
      2.952  0.5157E-02  0.4096E-01
      3.013  0.2851E-01  0.4270E-01
      3.074  0.2530E-01  0.4425E-01
      3.135  0.1042E-01  0.4489E-01
      3.197  0.3324E-01  0.4693E-01
      3.258  0.7051E-03  0.4697E-01
      3.319  0.2603E-01  0.4857E-01
      3.381  0.1006E-01  0.4919E-01
      3.442  0.3125E-05  0.4919E-01
      3.503  0.5985E-05  0.4919E-01
      3.565  0.2034E-01  0.5044E-01
      3.626  0.2841E-01  0.5218E-01
      3.687  0.1741E-03  0.5219E-01
      3.749  0.1407E-12  0.5219E-01
      3.810  0.3417E-06  0.5219E-01
      3.871  0.7594E-02  0.5265E-01
      3.932  0.2519E-01  0.5420E-01
      3.994  0.3918E-02  0.5444E-01
      4.055  0.4402E-07  0.5444E-01
      4.116  0.5346E-02  0.5477E-01
      4.178  0.2146E-01  0.5608E-01
      4.239  0.9892E-02  0.5669E-01
      4.300  0.3059E-03  0.5671E-01
      4.362  0.2372E-01  0.5816E-01
      4.423  0.3788E-02  0.5839E-01
      4.484  0.1786E-01  0.5949E-01
      4.546  0.2193E-01  0.6083E-01
      4.607  0.7797E-02  0.6131E-01
      4.668  0.3745E-04  0.6131E-01
      4.729  0.1597E-13  0.6131E-01
      4.791  0.0000E+00  0.6131E-01
      4.852  0.1696E-14  0.6131E-01
      4.913  0.1822E-04  0.6131E-01
      4.975  0.1132E-01  0.6201E-01
      5.036  0.1683E-01  0.6304E-01
      5.097  0.3785E-03  0.6306E-01
      5.159  0.2042E-11  0.6306E-01
      5.220  0.0000E+00  0.6306E-01
      5.281  0.0000E+00  0.6306E-01
      5.343  0.0000E+00  0.6306E-01
      5.404  0.3728E-09  0.6306E-01
      5.465  0.1711E-02  0.6317E-01
      5.526  0.1052E-01  0.6381E-01
      5.588  0.6959E-05  0.6381E-01
      5.649  0.0000E+00  0.6381E-01
      5.710  0.1912E-07  0.6381E-01
      5.772  0.1488E-02  0.6390E-01
      5.833  0.1570E-02  0.6400E-01
      5.894  0.2595E-07  0.6400E-01
      5.956  0.0000E+00  0.6400E-01
      6.017  0.0000E+00  0.6400E-01
      6.078  0.0000E+00  0.6400E-01
      6.140  0.0000E+00  0.6400E-01
      6.201  0.6847E-10  0.6400E-01
      6.262  0.6380E-03  0.6404E-01
      6.323  0.5480E-02  0.6438E-01
      6.385  0.5553E-02  0.6472E-01
      6.446  0.5625E-03  0.6475E-01
      6.507  0.4528E-10  0.6475E-01
      6.569  0.0000E+00  0.6475E-01
      6.630  0.0000E+00  0.6475E-01
      6.691  0.3395E-18  0.6475E-01
      6.753  0.2521E-06  0.6475E-01
      6.814  0.4005E-02  0.6500E-01
      6.875  0.1119E-01  0.6568E-01
      6.936  0.3153E-02  0.6587E-01
      6.998  0.3785E-08  0.6588E-01
      7.059  0.0000E+00  0.6588E-01
      7.120  0.1604E-07  0.6588E-01
      7.182  0.8626E-02  0.6640E-01
      7.243  0.2512E-01  0.6794E-01
      7.304  0.9136E-03  0.6800E-01
      7.366  0.7059E-09  0.6800E-01
      7.427  0.0000E+00  0.6800E-01
      7.488  0.0000E+00  0.6800E-01
      7.550  0.7374E-10  0.6800E-01
      7.611  0.1851E-02  0.6811E-01
      7.672  0.4624E-01  0.7095E-01
      7.733  0.1204E-01  0.7169E-01
      7.795  0.3070E-02  0.7187E-01
      7.856  0.5660E-08  0.7188E-01
      7.917  0.1303E-02  0.7195E-01
      7.979  0.2308E-01  0.7337E-01
      8.040  0.2014E-02  0.7349E-01
      8.101  0.2257E-01  0.7488E-01
      8.163  0.3328E-01  0.7692E-01
      8.224  0.3390E-02  0.7713E-01
      8.285  0.1203E-02  0.7720E-01
      8.347  0.2497E-01  0.7873E-01
      8.408  0.3371E-03  0.7875E-01
      8.469  0.3818E-10  0.7875E-01
      8.530  0.1359E-02  0.7883E-01
      8.592  0.2303E-01  0.8025E-01
      8.653  0.7478E-04  0.8025E-01
      8.714  0.3678E-05  0.8025E-01
      8.776  0.2606E-01  0.8185E-01
      8.837  0.4252E-01  0.8445E-01
      8.898  0.1093E-01  0.8512E-01
      8.960  0.3372E-05  0.8513E-01
      9.021  0.8186E-04  0.8513E-01
      9.082  0.1378E-01  0.8597E-01
      9.144  0.2449E-02  0.8612E-01
      9.205  0.5309E-03  0.8616E-01
      9.266  0.1568E-01  0.8712E-01
      9.327  0.1778E-01  0.8821E-01
      9.389  0.3102E-01  0.9011E-01
      9.450  0.5018E-02  0.9042E-01
      9.511  0.1333E-02  0.9050E-01
      9.573  0.1756E-03  0.9051E-01
      9.634  0.2357E-01  0.9196E-01
      9.695  0.7241E-03  0.9200E-01
      9.757  0.6012E-11  0.9200E-01
      9.818  0.1768E-06  0.9200E-01
      9.879  0.1222E-01  0.9275E-01
      9.941  0.1597E-01  0.9373E-01
     10.002  0.8515E-02  0.9425E-01
     10.063  0.8204E-06  0.9425E-01
     10.124  0.5006E-02  0.9456E-01
     10.186  0.1130E-01  0.9525E-01
     10.247  0.1043E-05  0.9525E-01
     10.308  0.0000E+00  0.9525E-01
     10.370  0.0000E+00  0.9525E-01
     10.431  0.2075E-10  0.9525E-01
     10.492  0.7031E-03  0.9529E-01
     10.554  0.1150E-01  0.9600E-01
     10.615  0.3550E-04  0.9600E-01
     10.676  0.0000E+00  0.9600E-01
     10.738  0.0000E+00  0.9600E-01
     10.799  0.0000E+00  0.9600E-01
     10.860  0.0000E+00  0.9600E-01
     10.921  0.0000E+00  0.9600E-01
     10.983  0.0000E+00  0.9600E-01
     11.044  0.0000E+00  0.9600E-01
     11.105  0.0000E+00  0.9600E-01
     11.167  0.0000E+00  0.9600E-01
     11.228  0.0000E+00  0.9600E-01
     11.289  0.0000E+00  0.9600E-01
     11.351  0.0000E+00  0.9600E-01
