       N       E                     dE             d eps       ncg     rms          rms(c)
DAV:   1     0.427394562818E+02    0.42739E+02   -0.89545E+03   480   0.741E+02
DAV:   2    -0.432090530110E+02   -0.85949E+02   -0.79958E+02   680   0.131E+02
DAV:   3    -0.467761891855E+02   -0.35671E+01   -0.35376E+01   640   0.255E+01
DAV:   4    -0.468291493380E+02   -0.52960E-01   -0.52926E-01   576   0.406E+00
DAV:   5    -0.468303633557E+02   -0.12140E-02   -0.12138E-02   632   0.510E-01    0.101E+01
DAV:   6    -0.462152281975E+02    0.61514E+00   -0.29211E-01   536   0.211E+00    0.606E+00
DAV:   7    -0.459351424858E+02    0.28009E+00   -0.56806E-01   536   0.301E+00    0.356E-01
DAV:   8    -0.459372236582E+02   -0.20812E-02   -0.32138E-02   560   0.824E-01    0.127E-01
DAV:   9    -0.459374330895E+02   -0.20943E-03   -0.86329E-04   600   0.143E-01    0.112E-01
DAV:  10    -0.459375290508E+02   -0.95961E-04   -0.22914E-04   544   0.672E-02    0.574E-02
DAV:  11    -0.459375302875E+02   -0.12367E-05   -0.51720E-06   600   0.111E-02    0.320E-03
DAV:  12    -0.459375304505E+02   -0.16298E-06   -0.32723E-07   616   0.281E-03    0.205E-03
DAV:  13    -0.459375301878E+02    0.26265E-06   -0.10183E-07   568   0.150E-03    0.159E-04
DAV:  14    -0.459375301989E+02   -0.11062E-07   -0.11378E-09   400   0.174E-04    0.112E-04
DAV:  15    -0.459375302121E+02   -0.13157E-07   -0.13330E-10   328   0.647E-05    0.307E-05
DAV:  16    -0.459375302094E+02    0.26289E-08   -0.24794E-11   312   0.262E-05
   1 F= -.45937530E+02 E0= -.45937530E+02  d E =-.459375E+02
       N       E                     dE             d eps       ncg     rms          rms(c)
DAV:   1    -0.459375302102E+02    0.18561E-08   -0.46878E-11   304   0.324E-05    0.616E-06
DAV:   2    -0.459375302100E+02    0.15154E-09   -0.69342E-12   288   0.118E-05    0.442E-06
DAV:   3    -0.459375302095E+02    0.58571E-09   -0.68910E-13   288   0.582E-06    0.879E-07
DAV:   4    -0.459375302093E+02    0.15655E-09   -0.34731E-14   288   0.252E-06    0.364E-07
DAV:   5    -0.459375302093E+02    0.15575E-10    0.14687E-13   288   0.109E-06
   2 F= -.45937530E+02 E0= -.45937530E+02  d E =0.136538E-09
       N       E                     dE             d eps       ncg     rms          rms(c)
DAV:   1    -0.459375302092E+02    0.15461E-09   -0.20716E-11   288   0.197E-05    0.346E-06
DAV:   2    -0.459375302094E+02   -0.20907E-09   -0.17959E-12   288   0.644E-06    0.276E-06
DAV:   3    -0.459375302095E+02   -0.15882E-09   -0.60094E-13   264   0.247E-06    0.698E-07
DAV:   4    -0.459375302099E+02   -0.37619E-09   -0.36018E-13   264   0.991E-07    0.206E-07
DAV:   5    -0.459375302099E+02    0.28649E-10   -0.75652E-13   264   0.398E-07
   3 F= -.45937530E+02 E0= -.45937530E+02  d E =-.439854E-09
