 vasp.6.3.2 27Jun22 (build Oct 14 2022 12:13:54) complex                        
  
 executed on             LinuxIFC date 2023.04.03  14:21:26
 running on   32 total cores
 distrk:  each k-point on   32 cores,    1 groups
 distr:  one band on NCORE=   4 cores,    8 groups


--------------------------------------------------------------------------------------------------------


 INCAR:
   ADDGRID = True
   EDIFF = 1e-08
   EDIFFG = -1e-06
   ENCUT = 318
   GGA = Ps
   IALGO = 38
   IBRION = 2
   ISIF = 3
   ISMEAR = 0
   LCHARG = False
   LREAL = False
   LWAVE = False
   NELMIN = 5
   NPAR = 8
   NSW = 500
   PREC = Accurate
   SIGMA = 0.02

 POTCAR:    PAW_PBE Si 05Jan2001                  
 POTCAR:    PAW_PBE Si 05Jan2001                  
   SHA256 =  79d9987ad8750f624c4d6acb2a16d13abf6a777132adc04dc6c8399be72b42bb Si/POTCAR             
   COPYR  = (c) Copyright 05Jan2001 Georg Kresse                                                    
   COPYR  = This file is part of the software VASP. Any use, copying, and all other rights are regul
   COPYR  = If you do not have a valid VASP license, you may not use, copy or distribute this file. 
   VRHFIN =Si: s2p2                                                                                 
   LEXCH  = PE                                                                                      
   EATOM  =   103.0669 eV,    7.5752 Ry                                                             
                                                                                                    
   TITEL  = PAW_PBE Si 05Jan2001                                                                    
   LULTRA =        F    use ultrasoft PP ?                                                          
   IUNSCR =        1    unscreen: 0-lin 1-nonlin 2-no                                               
   RPACOR =    1.500    partial core radius                                                         
   POMASS =   28.085; ZVAL   =    4.000    mass and valenz                                          
   RCORE  =    1.900    outmost cutoff radius                                                       
   RWIGS  =    2.480; RWIGS  =    1.312    wigner-seitz radius (au A)                               
   ENMAX  =  245.345; ENMIN  =  184.009 eV                                                          
   ICORE  =        2    local potential                                                             
   LCOR   =        T    correct aug charges                                                         
   LPAW   =        T    paw PP                                                                      
   EAUG   =  322.069                                                                                
   DEXC   =    0.000                                                                                
   RMAX   =    1.950    core radius for proj-oper                                                   
   RAUG   =    1.300    factor for augmentation sphere                                              
   RDEP   =    1.993    radius for radial grids                                                     
   RDEPT  =    1.837    core radius for aug-charge                                                  
                                                                                                    
   Atomic configuration                                                                             
    6 entries                                                                                       
     n  l   j            E        occ.                                                              
     1  0  0.50     -1785.8828   2.0000                                                             
     2  0  0.50      -139.4969   2.0000                                                             
     2  1  1.50       -95.5546   6.0000                                                             
     3  0  0.50       -10.8127   2.0000                                                             
     3  1  0.50        -4.0811   2.0000                                                             
     3  2  1.50        -4.0817   0.0000                                                             
   Description                                                                                      
     l       E           TYP  RCUT    TYP  RCUT                                                     
     0    -10.8127223     23  1.900                                                                 
     0     -7.6451159     23  1.900                                                                 
     1     -4.0811372     23  1.900                                                                 
     1      2.4879257     23  1.900                                                                 
     2     -4.0817478      7  1.900                                                                 
  local pseudopotential read in
  partial core-charges read in
  partial kinetic energy density read in
  atomic valenz-charges read in
  non local Contribution for L=           0  read in
    real space projection operators read in
  non local Contribution for L=           0  read in
    real space projection operators read in
  non local Contribution for L=           1  read in
    real space projection operators read in
  non local Contribution for L=           1  read in
    real space projection operators read in
    PAW grid and wavefunctions read in
 
   number of l-projection  operators is LMAX  =           4
   number of lm-projection operators is LMMAX =           8
 
 -----------------------------------------------------------------------------
|                                                                             |
|               ----> ADVICE to this user running VASP <----                  |
|                                                                             |
|     You enforced a specific xc type in the INCAR file but a different       |
|     type was found in the POTCAR file.                                      |
|     I HOPE YOU KNOW WHAT YOU ARE DOING!                                     |
|                                                                             |
 -----------------------------------------------------------------------------

  PAW_PBE Si 05Jan2001                  :
 energy of atom  1       EATOM= -103.0669
 kinetic energy error for atom=    0.0016 (will be added to EATOM!!)
 
 
 POSCAR: Si
  positions in cartesian coordinates
  No initial velocities read in
 exchange correlation table for  LEXCH =       14
   RHO(1)=    0.500       N(1)  =     2000
   RHO(2)=  100.500       N(2)  =     4000
 


--------------------------------------------------------------------------------------------------------


 ion  position               nearest neighbor table
   1  0.500  0.000  0.000-   2 2.35   4 2.35   6 2.35   8 2.35
   2  0.250  0.250  0.750-   1 2.35   3 2.35   5 2.35   7 2.35
   3  0.500  0.500  0.500-   2 2.35   4 2.35   6 2.35   8 2.35
   4  0.250  0.750  0.250-   1 2.35   3 2.35   5 2.35   7 2.35
   5  0.000  0.000  0.500-   2 2.35   4 2.35   6 2.35   8 2.35
   6  0.750  0.250  0.250-   1 2.35   3 2.35   5 2.35   7 2.35
   7  0.000  0.500  0.000-   2 2.35   4 2.35   6 2.35   8 2.35
   8  0.750  0.750  0.750-   1 2.35   3 2.35   5 2.35   7 2.35
 
  LATTYP: Found a simple cubic cell.
 ALAT       =     5.4345372100
  
  Lattice vectors:
  
 A1 = (   5.4345372100,   0.0000000000,   0.0000000000)
 A2 = (   0.0000000000,   5.4345372100,   0.0000000000)
 A3 = (   0.0000000000,   0.0000000000,   5.4345372100)


Analysis of symmetry for initial positions (statically):
=====================================================================
 Subroutine PRICEL returns following result:
 
  LATTYP: Found a face centered cubic cell.
 ALAT       =     5.4345372100
  
  Lattice vectors:
  
 A1 = (   2.7172686050,  -2.7172686050,   0.0000000000)
 A2 = (   2.7172686050,   0.0000000000,   2.7172686050)
 A3 = (   0.0000000000,  -2.7172686050,   2.7172686050)
 
   4 primitive cells build up your supercell.
 

 Routine SETGRP: Setting up the symmetry group for a 
 simple cubic supercell.


 Subroutine GETGRP returns: Found 48 space group operations
 (whereof 24 operations were pure point group operations)
 out of a pool of 48 trial point group operations.


The static configuration has the point symmetry T_d .
 The point group associated with its full space group is O_h .


Analysis of symmetry for dynamics (positions and initial velocities):
=====================================================================
 Subroutine PRICEL returns following result:
 
  LATTYP: Found a face centered cubic cell.
 ALAT       =     5.4345372100
  
  Lattice vectors:
  
 A1 = (   2.7172686050,  -2.7172686050,   0.0000000000)
 A2 = (   2.7172686050,   0.0000000000,   2.7172686050)
 A3 = (   0.0000000000,  -2.7172686050,   2.7172686050)
 
   4 primitive cells build up your supercell.
 

 Routine SETGRP: Setting up the symmetry group for a 
 simple cubic supercell.


 Subroutine GETGRP returns: Found 48 space group operations
 (whereof 24 operations were pure point group operations)
 out of a pool of 48 trial point group operations.


The dynamic configuration has the point symmetry T_d .
 The point group associated with its full space group is O_h .


 Subroutine INISYM returns: Found 48 space group operations
 (whereof 24 operations are pure point group operations),
 and found     4 'primitive' translations


----------------------------------------------------------------------------------------

                                     Primitive cell                                     

  volume of cell :      40.1262

  direct lattice vectors                    reciprocal lattice vectors
     2.717268605 -2.717268605  0.000000000     0.184008309 -0.184008309 -0.184008309
     2.717268605  0.000000000  2.717268605     0.184008309  0.184008309  0.184008309
     0.000000000 -2.717268605  2.717268605    -0.184008309 -0.184008309  0.184008309

  length of vectors
     3.842798114  3.842798114  3.842798114     0.318711739  0.318711739  0.318711739

  position of ions in fractional coordinates (direct lattice)
     0.500000000  0.500000000  0.500000000
     0.250000000  0.250000000  0.250000000

  ion indices of the primitive-cell ions
   primitive index   ion index
                 1           1
                 2           2

----------------------------------------------------------------------------------------

 
 
 KPOINTS: KPOINTS created by Atomic Simulation Env

Automatic generation of k-mesh.
 Grid dimensions read from file:
 generate k-points for:    4    4    4

 Generating k-lattice:

  Cartesian coordinates                     Fractional coordinates (reciprocal lattice)
     0.046002077  0.000000000  0.000000000     0.250000000  0.000000000  0.000000000
     0.000000000  0.046002077  0.000000000     0.000000000  0.250000000  0.000000000
     0.000000000  0.000000000  0.046002077     0.000000000  0.000000000  0.250000000

  Length of vectors
     0.046002077  0.046002077  0.046002077

  Shift w.r.t. Gamma in fractional coordinates (k-lattice)
     0.000000000  0.000000000  0.000000000

 
 Subroutine IBZKPT returns following result:
 ===========================================
 
 Found     10 irreducible k-points:
 
 Following reciprocal coordinates:
            Coordinates               Weight
  0.000000  0.000000  0.000000      1.000000
  0.250000  0.000000  0.000000      6.000000
  0.500000  0.000000  0.000000      3.000000
  0.250000  0.250000  0.000000     12.000000
  0.500000  0.250000  0.000000     12.000000
  0.500000  0.500000  0.000000      3.000000
  0.250000  0.250000  0.250000      8.000000
  0.500000  0.250000  0.250000     12.000000
  0.500000  0.500000  0.250000      6.000000
  0.500000  0.500000  0.500000      1.000000
 
 Following cartesian coordinates:
            Coordinates               Weight
  0.000000  0.000000  0.000000      1.000000
  0.046002  0.000000  0.000000      6.000000
  0.092004  0.000000  0.000000      3.000000
  0.046002  0.046002  0.000000     12.000000
  0.092004  0.046002  0.000000     12.000000
  0.092004  0.092004  0.000000      3.000000
  0.046002  0.046002  0.046002      8.000000
  0.092004  0.046002  0.046002     12.000000
  0.092004  0.092004  0.046002      6.000000
  0.092004  0.092004  0.092004      1.000000
 


--------------------------------------------------------------------------------------------------------




 Dimension of arrays:
   k-points           NKPTS =     10   k-points in BZ     NKDIM =     10   number of bands    NBANDS=     24
   number of dos      NEDOS =    301   number of ions     NIONS =      8
   non local maximal  LDIM  =      4   non local SUM 2l+1 LMDIM =      8
   total plane-waves  NPLWV =  32768
   max r-space proj   IRMAX =      1   max aug-charges    IRDMAX=  54801
   dimension x,y,z NGX =    32 NGY =   32 NGZ =   32
   dimension x,y,z NGXF=    64 NGYF=   64 NGZF=   64
   support grid    NGXF=   128 NGYF=  128 NGZF=  128
   ions per type =               8
   NGX,Y,Z   is equivalent  to a cutoff of   9.79,  9.79,  9.79 a.u.
   NGXF,Y,Z  is equivalent  to a cutoff of  19.58, 19.58, 19.58 a.u.

 SYSTEM =  unknown system                          
 POSCAR =  Si                                      

 Startparameter for this run:
   NWRITE =      2    write-flag & timer
   PREC   = accura    normal or accurate (medium, high low for compatibility)
   ISTART =      0    job   : 0-new  1-cont  2-samecut
   ICHARG =      2    charge: 1-file 2-atom 10-const
   ISPIN  =      1    spin polarized calculation?
   LNONCOLLINEAR =      F non collinear calculations
   LSORBIT =      F    spin-orbit coupling
   INIWAV =      1    electr: 0-lowe 1-rand  2-diag
   LASPH  =      F    aspherical Exc in radial PAW
 Electronic Relaxation 1
   ENCUT  =  318.0 eV  23.37 Ry    4.83 a.u.   7.90  7.90  7.90*2*pi/ulx,y,z
   ENINI  =  318.0     initial cutoff
   ENAUG  =  322.1 eV  augmentation charge cutoff
   NELM   =     60;   NELMIN=  5; NELMDL= -5     # of ELM steps 
   EDIFF  = 0.1E-07   stopping-criterion for ELM
   LREAL  =      F    real-space projection
   NLSPLINE    = F    spline interpolate recip. space projectors
   LCOMPAT=      F    compatible to vasp.4.4
   GGA_COMPAT  = T    GGA compatible to vasp.4.4-vasp.4.6
   LMAXPAW     = -100 max onsite density
   LMAXMIX     =    2 max onsite mixed and CHGCAR
   VOSKOWN=      0    Vosko Wilk Nusair interpolation
   ROPT   =    0.00000
 Ionic relaxation
   EDIFFG = -.1E-05   stopping-criterion for IOM
   NSW    =    500    number of steps for IOM
   NBLOCK =      1;   KBLOCK =    500    inner block; outer block 
   IBRION =      2    ionic relax: 0-MD 1-quasi-New 2-CG
   NFREE  =      1    steps in history (QN), initial steepest desc. (CG)
   ISIF   =      3    stress and relaxation
   IWAVPR =     11    prediction:  0-non 1-charg 2-wave 3-comb
   ISYM   =      2    0-nonsym 1-usesym 2-fastsym
   LCORR  =      T    Harris-Foulkes like correction to forces

   POTIM  = 0.5000    time-step for ionic-motion
   TEIN   =    0.0    initial temperature
   TEBEG  =    0.0;   TEEND  =   0.0 temperature during run
   SMASS  =  -3.00    Nose mass-parameter (am)
   estimated Nose-frequenzy (Omega)   =  0.10E-29 period in steps = 0.13E+47 mass=  -0.675E-27a.u.
   SCALEE = 1.0000    scale energy and forces
   NPACO  =    256;   APACO  = 10.0  distance and # of slots for P.C.
   PSTRESS=    0.0 pullay stress

  Mass of Ions in am
   POMASS =  28.09
  Ionic Valenz
   ZVAL   =   4.00
  Atomic Wigner-Seitz radii
   RWIGS  =  -1.00
  virtual crystal weights 
   VCA    =   1.00
   NELECT =      32.0000    total number of electrons
   NUPDOWN=      -1.0000    fix difference up-down

 DOS related values:
   EMIN   =  10.00;   EMAX   =-10.00  energy-range for DOS
   EFERMI =   0.00
   ISMEAR =     0;   SIGMA  =   0.02  broadening in eV -4-tet -1-fermi 0-gaus

 Electronic relaxation 2 (details)
   IALGO  =     38    algorithm
   LDIAG  =      T    sub-space diagonalisation (order eigenvalues)
   LSUBROT=      F    optimize rotation matrix (better conditioning)
   TURBO    =      0    0=normal 1=particle mesh
   IRESTART =      0    0=no restart 2=restart with 2 vectors
   NREBOOT  =      0    no. of reboots
   NMIN     =      0    reboot dimension
   EREF     =   0.00    reference energy to select bands
   IMIX   =      4    mixing-type and parameters
     AMIX     =   0.40;   BMIX     =  1.00
     AMIX_MAG =   1.60;   BMIX_MAG =  1.00
     AMIN     =   0.10
     WC   =   100.;   INIMIX=   1;  MIXPRE=   1;  MAXMIX= -45

 Intra band minimization:
   WEIMIN = 0.0010     energy-eigenvalue tresh-hold
   EBREAK =  0.10E-09  absolut break condition
   DEPER  =   0.30     relativ break condition  

   TIME   =   0.40     timestep for ELM

  volume/ion in A,a.u.               =      20.06       135.39
  Fermi-wavevector in a.u.,A,eV,Ry     =   0.956377  1.807290 12.444652  0.914656
  Thomas-Fermi vector in A             =   2.085299
 
 Write flags
   LWAVE        =      F    write WAVECAR
   LDOWNSAMPLE  =      F    k-point downsampling of WAVECAR
   LCHARG       =      F    write CHGCAR
   LVTOT        =      F    write LOCPOT, total local potential
   LVHAR        =      F    write LOCPOT, Hartree potential only
   LELF         =      F    write electronic localiz. function (ELF)
   LORBIT       =      0    0 simple, 1 ext, 2 COOP (PROOUT), +10 PAW based schemes


 Dipole corrections
   LMONO  =      F    monopole corrections only (constant potential shift)
   LDIPOL =      F    correct potential (dipole corrections)
   IDIPOL =      0    1-x, 2-y, 3-z, 4-all directions 
   EPSILON=  1.0000000 bulk dielectric constant

 Exchange correlation treatment:
   GGA     =    PS    GGA type
   LEXCH   =    14    internal setting for exchange type
   LIBXC   =     F    Libxc                    
   VOSKOWN =     0    Vosko Wilk Nusair interpolation
   LHFCALC =     F    Hartree Fock is set to
   LHFONE  =     F    Hartree Fock one center treatment
   AEXX    =    0.0000 exact exchange contribution

 Linear response parameters
   LEPSILON=     F    determine dielectric tensor
   LRPA    =     F    only Hartree local field effects (RPA)
   LNABLA  =     F    use nabla operator in PAW spheres
   LVEL    =     F    velocity operator in full k-point grid
   CSHIFT  =0.1000    complex shift for real part using Kramers Kronig
   OMEGAMAX=  -1.0    maximum frequency
   DEG_THRESHOLD= 0.2000000E-02 threshold for treating states as degnerate
   RTIME   =   -0.100 relaxation time in fs
  (WPLASMAI=    0.000 imaginary part of plasma frequency in eV, 0.658/RTIME)
   DFIELD  = 0.0000000 0.0000000 0.0000000 field for delta impulse in time
 
  Optional k-point grid parameters
   LKPOINTS_OPT  =     F    use optional k-point grid
   KPOINTS_OPT_MODE=     1    mode for optional k-point grid
 
 Orbital magnetization related:
   ORBITALMAG=     F  switch on orbital magnetization
   LCHIMAG   =     F  perturbation theory with respect to B field
   DQ        =  0.001000  dq finite difference perturbation B field
   LLRAUG    =     F  two centre corrections for induced B field



--------------------------------------------------------------------------------------------------------


 conjugate gradient relaxation of ions
 charge density and potential will be updated during run
 non-spin polarized calculation
 Variant of blocked Davidson
 Davidson routine will perform the subspace rotation
 perform sub-space diagonalisation
    after iterative eigenvector-optimisation
 modified Broyden-mixing scheme, WC =      100.0
 initial mixing is a Kerker type mixing with AMIX =  0.4000 and BMIX =      1.0000
 Hartree-type preconditioning will be used
 using additional bands            8
 reciprocal scheme for non local part
 use partial core corrections
 calculate Harris-corrections to forces 
   (improved forces if not selfconsistent)
 use gradient corrections 
 use of overlap-Matrix (Vanderbilt PP)
 Gauss-broadening in eV      SIGMA  =   0.02


--------------------------------------------------------------------------------------------------------


  energy-cutoff  :      318.00
  volume of cell :      160.50
      direct lattice vectors                 reciprocal lattice vectors
     5.434537210  0.000000000  0.000000000     0.184008309  0.000000000  0.000000000
     0.000000000  5.434537210  0.000000000     0.000000000  0.184008309  0.000000000
     0.000000000  0.000000000  5.434537210     0.000000000  0.000000000  0.184008309

  length of vectors
     5.434537210  5.434537210  5.434537210     0.184008309  0.184008309  0.184008309


 
 k-points in units of 2pi/SCALE and weight: KPOINTS created by Atomic Simulation Env
   0.00000000  0.00000000  0.00000000       0.016
   0.04600208  0.00000000  0.00000000       0.094
   0.09200415  0.00000000  0.00000000       0.047
   0.04600208  0.04600208  0.00000000       0.188
   0.09200415  0.04600208  0.00000000       0.188
   0.09200415  0.09200415  0.00000000       0.047
   0.04600208  0.04600208  0.04600208       0.125
   0.09200415  0.04600208  0.04600208       0.188
   0.09200415  0.09200415  0.04600208       0.094
   0.09200415  0.09200415  0.09200415       0.016
 
 k-points in reciprocal lattice and weights: KPOINTS created by Atomic Simulation Env
   0.00000000  0.00000000  0.00000000       0.016
   0.25000000  0.00000000  0.00000000       0.094
   0.50000000  0.00000000  0.00000000       0.047
   0.25000000  0.25000000  0.00000000       0.188
   0.50000000  0.25000000  0.00000000       0.188
   0.50000000  0.50000000  0.00000000       0.047
   0.25000000  0.25000000  0.25000000       0.125
   0.50000000  0.25000000  0.25000000       0.188
   0.50000000  0.50000000  0.25000000       0.094
   0.50000000  0.50000000  0.50000000       0.016
 
 position of ions in fractional coordinates (direct lattice) 
   0.50000000  0.00000000  0.00000000
   0.25000000  0.25000000  0.75000000
   0.50000000  0.50000000  0.50000000
   0.25000000  0.75000000  0.25000000
   0.00000000  0.00000000  0.50000000
   0.75000000  0.25000000  0.25000000
   0.00000000  0.50000000  0.00000000
   0.75000000  0.75000000  0.75000000
 
 position of ions in cartesian coordinates  (Angst):
   2.71726860  0.00000000  0.00000000
   1.35863430  1.35863430  4.07590291
   2.71726860  2.71726860  2.71726860
   1.35863430  4.07590291  1.35863430
   0.00000000  0.00000000  2.71726860
   4.07590291  1.35863430  1.35863430
   0.00000000  2.71726860  0.00000000
   4.07590291  4.07590291  4.07590291
 


--------------------------------------------------------------------------------------------------------


 k-point   1 :   0.0000 0.0000 0.0000  plane waves:    2103
 k-point   2 :   0.2500 0.0000 0.0000  plane waves:    2036
 k-point   3 :   0.5000 0.0000 0.0000  plane waves:    2088
 k-point   4 :   0.2500 0.2500 0.0000  plane waves:    2063
 k-point   5 :   0.5000 0.2500 0.0000  plane waves:    2078
 k-point   6 :   0.5000 0.5000 0.0000  plane waves:    2048
 k-point   7 :   0.2500 0.2500 0.2500  plane waves:    2070
 k-point   8 :   0.5000 0.2500 0.2500  plane waves:    2084
 k-point   9 :   0.5000 0.5000 0.2500  plane waves:    2052
 k-point  10 :   0.5000 0.5000 0.5000  plane waves:    2008

 maximum and minimum number of plane-waves per node :       553      486

 maximum number of plane-waves:      2103
 maximum index in each direction: 
   IXMAX=    7   IYMAX=    7   IZMAX=    7
   IXMIN=   -8   IYMIN=   -8   IZMIN=   -8


 parallel 3D FFT for wavefunctions:
    minimum data exchange during FFTs selected (reduces bandwidth)
 parallel 3D FFT for charge:
    minimum data exchange during FFTs selected (reduces bandwidth)


 total amount of memory used by VASP MPI-rank0    32857. kBytes
=======================================================================

   base      :      30000. kBytes
   nonl-proj :        399. kBytes
   fftplans  :       1462. kBytes
   grid      :        733. kBytes
   one-center:          6. kBytes
   wavefun   :        257. kBytes
 
     INWAV:  cpu time      0.0000: real time      0.0000
 Broyden mixing: mesh for mixing (old mesh)
   NGX = 15   NGY = 15   NGZ = 15
  (NGX  = 64   NGY  = 64   NGZ  = 64)
  gives a total of   3375 points

 initial charge density was supplied:
 charge density of overlapping atoms calculated
 number of electron      32.0000000 magnetization 
 keeping initial charge density in first step


--------------------------------------------------------------------------------------------------------


 Maximum index for augmentation-charges         1701 (set IRDMAX)


--------------------------------------------------------------------------------------------------------


 First call to EWALD:  gamma=   0.326
 Maximum number of real-space cells 3x 3x 3
 Maximum number of reciprocal cells 3x 3x 3

    FEWALD:  cpu time      0.0022: real time      0.0022


--------------------------------------- Iteration      1(   1)  ---------------------------------------


    POTLOK:  cpu time      0.0039: real time      0.0040
    SETDIJ:  cpu time      0.0041: real time      0.0042
     EDDAV:  cpu time      0.0419: real time      0.0422
       DOS:  cpu time      0.0003: real time      0.0003
    --------------------------------------------
      LOOP:  cpu time      0.0502: real time      0.0506

 eigenvalue-minimisations  :   480
 total energy-change (2. order) : 0.4273946E+02  (-0.8954496E+03)
 number of electron      32.0000000 magnetization 
 augmentation part       32.0000000 magnetization 

 Free energy of the ion-electron system (eV)
  ---------------------------------------------------
  alpha Z        PSCENC =        13.42291310
  Ewald energy   TEWEN  =      -913.49083609
  -Hartree energ DENC   =       -44.15487505
  -exchange      EXHF   =         0.00000000
  -V(xc)+E(xc)   XCENC  =       -69.85643399
  PAW double counting   =       699.82828177     -561.52230517
  entropy T*S    EENTRO =        -0.00236852
  eigenvalues    EBANDS =        97.91920221
  atomic energy  EATOM  =       820.59587802
  Solvation  Ediel_sol  =         0.00000000
  ---------------------------------------------------
  free energy    TOTEN  =        42.73945628 eV

  energy without entropy =       42.74182480  energy(sigma->0) =       42.74064054


--------------------------------------------------------------------------------------------------------




--------------------------------------- Iteration      1(   2)  ---------------------------------------


     EDDAV:  cpu time      0.0474: real time      0.0481
       DOS:  cpu time      0.0001: real time      0.0001
    --------------------------------------------
      LOOP:  cpu time      0.0475: real time      0.0482

 eigenvalue-minimisations  :   680
 total energy-change (2. order) :-0.8594851E+02  (-0.7995831E+02)
 number of electron      32.0000000 magnetization 
 augmentation part       32.0000000 magnetization 

 Free energy of the ion-electron system (eV)
  ---------------------------------------------------
  alpha Z        PSCENC =        13.42291310
  Ewald energy   TEWEN  =      -913.49083609
  -Hartree energ DENC   =       -44.15487505
  -exchange      EXHF   =         0.00000000
  -V(xc)+E(xc)   XCENC  =       -69.85643399
  PAW double counting   =       699.82828177     -561.52230517
  entropy T*S    EENTRO =        -0.00000000
  eigenvalues    EBANDS =        11.96832440
  atomic energy  EATOM  =       820.59587802
  Solvation  Ediel_sol  =         0.00000000
  ---------------------------------------------------
  free energy    TOTEN  =       -43.20905301 eV

  energy without entropy =      -43.20905301  energy(sigma->0) =      -43.20905301


--------------------------------------------------------------------------------------------------------




--------------------------------------- Iteration      1(   3)  ---------------------------------------


     EDDAV:  cpu time      0.0447: real time      0.0450
       DOS:  cpu time      0.0001: real time      0.0001
    --------------------------------------------
      LOOP:  cpu time      0.0448: real time      0.0451

 eigenvalue-minimisations  :   640
 total energy-change (2. order) :-0.3567136E+01  (-0.3537578E+01)
 number of electron      32.0000000 magnetization 
 augmentation part       32.0000000 magnetization 

 Free energy of the ion-electron system (eV)
  ---------------------------------------------------
  alpha Z        PSCENC =        13.42291310
  Ewald energy   TEWEN  =      -913.49083609
  -Hartree energ DENC   =       -44.15487505
  -exchange      EXHF   =         0.00000000
  -V(xc)+E(xc)   XCENC  =       -69.85643399
  PAW double counting   =       699.82828177     -561.52230517
  entropy T*S    EENTRO =        -0.00000000
  eigenvalues    EBANDS =         8.40118822
  atomic energy  EATOM  =       820.59587802
  Solvation  Ediel_sol  =         0.00000000
  ---------------------------------------------------
  free energy    TOTEN  =       -46.77618919 eV

  energy without entropy =      -46.77618919  energy(sigma->0) =      -46.77618919


--------------------------------------------------------------------------------------------------------




--------------------------------------- Iteration      1(   4)  ---------------------------------------


     EDDAV:  cpu time      0.0414: real time      0.0416
       DOS:  cpu time      0.0001: real time      0.0001
    --------------------------------------------
      LOOP:  cpu time      0.0415: real time      0.0417

 eigenvalue-minimisations  :   576
 total energy-change (2. order) :-0.5296015E-01  (-0.5292589E-01)
 number of electron      32.0000000 magnetization 
 augmentation part       32.0000000 magnetization 

 Free energy of the ion-electron system (eV)
  ---------------------------------------------------
  alpha Z        PSCENC =        13.42291310
  Ewald energy   TEWEN  =      -913.49083609
  -Hartree energ DENC   =       -44.15487505
  -exchange      EXHF   =         0.00000000
  -V(xc)+E(xc)   XCENC  =       -69.85643399
  PAW double counting   =       699.82828177     -561.52230517
  entropy T*S    EENTRO =        -0.00000000
  eigenvalues    EBANDS =         8.34822807
  atomic energy  EATOM  =       820.59587802
  Solvation  Ediel_sol  =         0.00000000
  ---------------------------------------------------
  free energy    TOTEN  =       -46.82914934 eV

  energy without entropy =      -46.82914934  energy(sigma->0) =      -46.82914934


--------------------------------------------------------------------------------------------------------




--------------------------------------- Iteration      1(   5)  ---------------------------------------


     EDDAV:  cpu time      0.0430: real time      0.0433
       DOS:  cpu time      0.0001: real time      0.0001
    CHARGE:  cpu time      0.0081: real time      0.0081
    MIXING:  cpu time      0.0002: real time      0.0002
    --------------------------------------------
      LOOP:  cpu time      0.0514: real time      0.0517

 eigenvalue-minimisations  :   632
 total energy-change (2. order) :-0.1214018E-02  (-0.1213776E-02)
 number of electron      31.9999999 magnetization 
 augmentation part       -1.8699370 magnetization 

 Broyden mixing:
  rms(total) = 0.10061E+01    rms(broyden)= 0.10061E+01
  rms(prec ) = 0.13662E+01
  weight for this iteration     100.00

 Free energy of the ion-electron system (eV)
  ---------------------------------------------------
  alpha Z        PSCENC =        13.42291310
  Ewald energy   TEWEN  =      -913.49083609
  -Hartree energ DENC   =       -44.15487505
  -exchange      EXHF   =         0.00000000
  -V(xc)+E(xc)   XCENC  =       -69.85643399
  PAW double counting   =       699.82828177     -561.52230517
  entropy T*S    EENTRO =        -0.00000000
  eigenvalues    EBANDS =         8.34701405
  atomic energy  EATOM  =       820.59587802
  Solvation  Ediel_sol  =         0.00000000
  ---------------------------------------------------
  free energy    TOTEN  =       -46.83036336 eV

  energy without entropy =      -46.83036336  energy(sigma->0) =      -46.83036336


--------------------------------------------------------------------------------------------------------




--------------------------------------- Iteration      1(   6)  ---------------------------------------


    POTLOK:  cpu time      0.0030: real time      0.0031
    SETDIJ:  cpu time      0.0031: real time      0.0031
     EDDAV:  cpu time      0.0384: real time      0.0386
       DOS:  cpu time      0.0001: real time      0.0001
    CHARGE:  cpu time      0.0073: real time      0.0074
    MIXING:  cpu time      0.0002: real time      0.0002
    --------------------------------------------
      LOOP:  cpu time      0.0522: real time      0.0525

 eigenvalue-minimisations  :   536
 total energy-change (2. order) : 0.6151352E+00  (-0.2921136E-01)
 number of electron      31.9999999 magnetization 
 augmentation part       -1.8499435 magnetization 

 Broyden mixing:
  rms(total) = 0.60592E+00    rms(broyden)= 0.60592E+00
  rms(prec ) = 0.80778E+00
  weight for this iteration     100.00

 eigenvalues of (default mixing * dielectric matrix)
  average eigenvalue GAMMA=   2.5071
  2.5071

 Free energy of the ion-electron system (eV)
  ---------------------------------------------------
  alpha Z        PSCENC =        13.42291310
  Ewald energy   TEWEN  =      -913.49083609
  -Hartree energ DENC   =       -49.90485925
  -exchange      EXHF   =         0.00000000
  -V(xc)+E(xc)   XCENC  =       -68.94650479
  PAW double counting   =      1559.82491518    -1421.92471250
  entropy T*S    EENTRO =        -0.00000000
  eigenvalues    EBANDS =        14.20797813
  atomic energy  EATOM  =       820.59587802
  Solvation  Ediel_sol  =         0.00000000
  ---------------------------------------------------
  free energy    TOTEN  =       -46.21522820 eV

  energy without entropy =      -46.21522820  energy(sigma->0) =      -46.21522820


--------------------------------------------------------------------------------------------------------




--------------------------------------- Iteration      1(   7)  ---------------------------------------


    POTLOK:  cpu time      0.0030: real time      0.0031
    SETDIJ:  cpu time      0.0028: real time      0.0028
     EDDAV:  cpu time      0.0380: real time      0.0382
       DOS:  cpu time      0.0001: real time      0.0001
    CHARGE:  cpu time      0.0073: real time      0.0073
    MIXING:  cpu time      0.0003: real time      0.0003
    --------------------------------------------
      LOOP:  cpu time      0.0515: real time      0.0518

 eigenvalue-minimisations  :   536
 total energy-change (2. order) : 0.2800857E+00  (-0.5680648E-01)
 number of electron      31.9999999 magnetization 
 augmentation part       -1.8252587 magnetization 

 Broyden mixing:
  rms(total) = 0.35608E-01    rms(broyden)= 0.35608E-01
  rms(prec ) = 0.58673E-01
  weight for this iteration     100.00

 eigenvalues of (default mixing * dielectric matrix)
  average eigenvalue GAMMA=   2.2210
  2.2210  2.2210

 Free energy of the ion-electron system (eV)
  ---------------------------------------------------
  alpha Z        PSCENC =        13.42291310
  Ewald energy   TEWEN  =      -913.49083609
  -Hartree energ DENC   =       -59.00188751
  -exchange      EXHF   =         0.00000000
  -V(xc)+E(xc)   XCENC  =       -67.42609714
  PAW double counting   =      3585.15592673    -3447.79166415
  entropy T*S    EENTRO =        -0.00000000
  eigenvalues    EBANDS =        22.60062456
  atomic energy  EATOM  =       820.59587802
  Solvation  Ediel_sol  =         0.00000000
  ---------------------------------------------------
  free energy    TOTEN  =       -45.93514249 eV

  energy without entropy =      -45.93514249  energy(sigma->0) =      -45.93514249


--------------------------------------------------------------------------------------------------------




--------------------------------------- Iteration      1(   8)  ---------------------------------------


    POTLOK:  cpu time      0.0030: real time      0.0031
    SETDIJ:  cpu time      0.0028: real time      0.0028
     EDDAV:  cpu time      0.0393: real time      0.0395
       DOS:  cpu time      0.0001: real time      0.0001
    CHARGE:  cpu time      0.0072: real time      0.0073
    MIXING:  cpu time      0.0003: real time      0.0003
    --------------------------------------------
      LOOP:  cpu time      0.0528: real time      0.0531

 eigenvalue-minimisations  :   560
 total energy-change (2. order) :-0.2081172E-02  (-0.3213775E-02)
 number of electron      31.9999999 magnetization 
 augmentation part       -1.8301396 magnetization 

 Broyden mixing:
  rms(total) = 0.12677E-01    rms(broyden)= 0.12677E-01
  rms(prec ) = 0.18199E-01
  weight for this iteration     100.00

 eigenvalues of (default mixing * dielectric matrix)
  average eigenvalue GAMMA=   2.3058
  2.6593  2.1290  2.1290

 Free energy of the ion-electron system (eV)
  ---------------------------------------------------
  alpha Z        PSCENC =        13.42291310
  Ewald energy   TEWEN  =      -913.49083609
  -Hartree energ DENC   =       -58.35338729
  -exchange      EXHF   =         0.00000000
  -V(xc)+E(xc)   XCENC  =       -67.46298372
  PAW double counting   =      3582.80583957    -3445.35258566
  entropy T*S    EENTRO =        -0.00000000
  eigenvalues    EBANDS =        21.89793841
  atomic energy  EATOM  =       820.59587802
  Solvation  Ediel_sol  =         0.00000000
  ---------------------------------------------------
  free energy    TOTEN  =       -45.93722366 eV

  energy without entropy =      -45.93722366  energy(sigma->0) =      -45.93722366


--------------------------------------------------------------------------------------------------------




--------------------------------------- Iteration      1(   9)  ---------------------------------------


    POTLOK:  cpu time      0.0029: real time      0.0030
    SETDIJ:  cpu time      0.0027: real time      0.0027
     EDDAV:  cpu time      0.0412: real time      0.0413
       DOS:  cpu time      0.0001: real time      0.0001
    CHARGE:  cpu time      0.0071: real time      0.0072
    MIXING:  cpu time      0.0004: real time      0.0004
    --------------------------------------------
      LOOP:  cpu time      0.0544: real time      0.0546

 eigenvalue-minimisations  :   600
 total energy-change (2. order) :-0.2094313E-03  (-0.8632879E-04)
 number of electron      31.9999999 magnetization 
 augmentation part       -1.8301081 magnetization 

 Broyden mixing:
  rms(total) = 0.11172E-01    rms(broyden)= 0.11172E-01
  rms(prec ) = 0.12661E-01
  weight for this iteration     100.00

 eigenvalues of (default mixing * dielectric matrix)
  average eigenvalue GAMMA=   2.2669
  3.4029  2.4025  2.4025  0.8598

 Free energy of the ion-electron system (eV)
  ---------------------------------------------------
  alpha Z        PSCENC =        13.42291310
  Ewald energy   TEWEN  =      -913.49083609
  -Hartree energ DENC   =       -58.59543436
  -exchange      EXHF   =         0.00000000
  -V(xc)+E(xc)   XCENC  =       -67.42299095
  PAW double counting   =      3598.06037328    -3460.62010997
  entropy T*S    EENTRO =        -0.00000000
  eigenvalues    EBANDS =        22.11277389
  atomic energy  EATOM  =       820.59587802
  Solvation  Ediel_sol  =         0.00000000
  ---------------------------------------------------
  free energy    TOTEN  =       -45.93743309 eV

  energy without entropy =      -45.93743309  energy(sigma->0) =      -45.93743309


--------------------------------------------------------------------------------------------------------




--------------------------------------- Iteration      1(  10)  ---------------------------------------


    POTLOK:  cpu time      0.0030: real time      0.0031
    SETDIJ:  cpu time      0.0027: real time      0.0027
     EDDAV:  cpu time      0.0381: real time      0.0382
       DOS:  cpu time      0.0001: real time      0.0001
    CHARGE:  cpu time      0.0072: real time      0.0072
    MIXING:  cpu time      0.0003: real time      0.0003
    --------------------------------------------
      LOOP:  cpu time      0.0514: real time      0.0517

 eigenvalue-minimisations  :   544
 total energy-change (2. order) :-0.9596125E-04  (-0.2291421E-04)
 number of electron      31.9999999 magnetization 
 augmentation part       -1.8303937 magnetization 

 Broyden mixing:
  rms(total) = 0.57375E-02    rms(broyden)= 0.57375E-02
  rms(prec ) = 0.58757E-02
  weight for this iteration     100.00

 eigenvalues of (default mixing * dielectric matrix)
  average eigenvalue GAMMA=   1.8695
  2.8931  2.2748  2.2748  0.9523  0.9523

 Free energy of the ion-electron system (eV)
  ---------------------------------------------------
  alpha Z        PSCENC =        13.42291310
  Ewald energy   TEWEN  =      -913.49083609
  -Hartree energ DENC   =       -58.59854744
  -exchange      EXHF   =         0.00000000
  -V(xc)+E(xc)   XCENC  =       -67.41868150
  PAW double counting   =      3540.12977304    -3402.68436202
  entropy T*S    EENTRO =        -0.00000000
  eigenvalues    EBANDS =        22.10633383
  atomic energy  EATOM  =       820.59587802
  Solvation  Ediel_sol  =         0.00000000
  ---------------------------------------------------
  free energy    TOTEN  =       -45.93752905 eV

  energy without entropy =      -45.93752905  energy(sigma->0) =      -45.93752905


--------------------------------------------------------------------------------------------------------




--------------------------------------- Iteration      1(  11)  ---------------------------------------


    POTLOK:  cpu time      0.0028: real time      0.0029
    SETDIJ:  cpu time      0.0027: real time      0.0027
     EDDAV:  cpu time      0.0412: real time      0.0413
       DOS:  cpu time      0.0001: real time      0.0001
    CHARGE:  cpu time      0.0071: real time      0.0071
    MIXING:  cpu time      0.0004: real time      0.0004
    --------------------------------------------
      LOOP:  cpu time      0.0542: real time      0.0545

 eigenvalue-minimisations  :   600
 total energy-change (2. order) :-0.1236710E-05  (-0.5172036E-06)
 number of electron      31.9999999 magnetization 
 augmentation part       -1.8304748 magnetization 

 Broyden mixing:
  rms(total) = 0.32002E-03    rms(broyden)= 0.32001E-03
  rms(prec ) = 0.39531E-03
  weight for this iteration     100.00

 eigenvalues of (default mixing * dielectric matrix)
  average eigenvalue GAMMA=   1.9004
  2.7883  2.3852  2.3852  1.9955  0.9948  0.8532

 Free energy of the ion-electron system (eV)
  ---------------------------------------------------
  alpha Z        PSCENC =        13.42291310
  Ewald energy   TEWEN  =      -913.49083609
  -Hartree energ DENC   =       -58.59431994
  -exchange      EXHF   =         0.00000000
  -V(xc)+E(xc)   XCENC  =       -67.41860845
  PAW double counting   =      3558.58038821    -3421.13426064
  entropy T*S    EENTRO =        -0.00000000
  eigenvalues    EBANDS =        22.10131550
  atomic energy  EATOM  =       820.59587802
  Solvation  Ediel_sol  =         0.00000000
  ---------------------------------------------------
  free energy    TOTEN  =       -45.93753029 eV

  energy without entropy =      -45.93753029  energy(sigma->0) =      -45.93753029


--------------------------------------------------------------------------------------------------------




--------------------------------------- Iteration      1(  12)  ---------------------------------------


    POTLOK:  cpu time      0.0028: real time      0.0029
    SETDIJ:  cpu time      0.0027: real time      0.0027
     EDDAV:  cpu time      0.0419: real time      0.0420
       DOS:  cpu time      0.0001: real time      0.0001
    CHARGE:  cpu time      0.0069: real time      0.0070
    MIXING:  cpu time      0.0004: real time      0.0004
    --------------------------------------------
      LOOP:  cpu time      0.0548: real time      0.0551

 eigenvalue-minimisations  :   616
 total energy-change (2. order) :-0.1629841E-06  (-0.3272342E-07)
 number of electron      31.9999999 magnetization 
 augmentation part       -1.8304530 magnetization 

 Broyden mixing:
  rms(total) = 0.20516E-03    rms(broyden)= 0.20516E-03
  rms(prec ) = 0.25404E-03
  weight for this iteration     100.00

 eigenvalues of (default mixing * dielectric matrix)
  average eigenvalue GAMMA=   1.8714
  3.0685  2.6208  2.3525  2.2529  0.9638  0.9638  0.8776

 Free energy of the ion-electron system (eV)
  ---------------------------------------------------
  alpha Z        PSCENC =        13.42291310
  Ewald energy   TEWEN  =      -913.49083609
  -Hartree energ DENC   =       -58.59815950
  -exchange      EXHF   =         0.00000000
  -V(xc)+E(xc)   XCENC  =       -67.41858714
  PAW double counting   =      3560.22415893    -3422.77782864
  entropy T*S    EENTRO =        -0.00000000
  eigenvalues    EBANDS =        22.10493088
  atomic energy  EATOM  =       820.59587802
  Solvation  Ediel_sol  =         0.00000000
  ---------------------------------------------------
  free energy    TOTEN  =       -45.93753045 eV

  energy without entropy =      -45.93753045  energy(sigma->0) =      -45.93753045


--------------------------------------------------------------------------------------------------------




--------------------------------------- Iteration      1(  13)  ---------------------------------------


    POTLOK:  cpu time      0.0030: real time      0.0031
    SETDIJ:  cpu time      0.0026: real time      0.0027
     EDDAV:  cpu time      0.0393: real time      0.0395
       DOS:  cpu time      0.0001: real time      0.0001
    CHARGE:  cpu time      0.0069: real time      0.0070
    MIXING:  cpu time      0.0004: real time      0.0004
    --------------------------------------------
      LOOP:  cpu time      0.0523: real time      0.0526

 eigenvalue-minimisations  :   568
 total energy-change (2. order) : 0.2626546E-06  (-0.1018307E-07)
 number of electron      31.9999999 magnetization 
 augmentation part       -1.8304564 magnetization 

 Broyden mixing:
  rms(total) = 0.15886E-04    rms(broyden)= 0.15885E-04
  rms(prec ) = 0.16964E-04
  weight for this iteration     100.00

 eigenvalues of (default mixing * dielectric matrix)
  average eigenvalue GAMMA=   1.9788
  3.0896  2.7571  2.4882  2.4882  2.1663  0.9910  0.9248  0.9248

 Free energy of the ion-electron system (eV)
  ---------------------------------------------------
  alpha Z        PSCENC =        13.42291310
  Ewald energy   TEWEN  =      -913.49083609
  -Hartree energ DENC   =       -58.59705900
  -exchange      EXHF   =         0.00000000
  -V(xc)+E(xc)   XCENC  =       -67.41889450
  PAW double counting   =      3559.43371374    -3421.98708595
  entropy T*S    EENTRO =        -0.00000000
  eigenvalues    EBANDS =        22.10384050
  atomic energy  EATOM  =       820.59587802
  Solvation  Ediel_sol  =         0.00000000
  ---------------------------------------------------
  free energy    TOTEN  =       -45.93753019 eV

  energy without entropy =      -45.93753019  energy(sigma->0) =      -45.93753019


--------------------------------------------------------------------------------------------------------




--------------------------------------- Iteration      1(  14)  ---------------------------------------


    POTLOK:  cpu time      0.0027: real time      0.0028
    SETDIJ:  cpu time      0.0026: real time      0.0026
     EDDAV:  cpu time      0.0331: real time      0.0332
       DOS:  cpu time      0.0001: real time      0.0001
    CHARGE:  cpu time      0.0069: real time      0.0069
    MIXING:  cpu time      0.0004: real time      0.0004
    --------------------------------------------
      LOOP:  cpu time      0.0459: real time      0.0461

 eigenvalue-minimisations  :   400
 total energy-change (2. order) :-0.1106241E-07  (-0.1137807E-09)
 number of electron      31.9999999 magnetization 
 augmentation part       -1.8304570 magnetization 

 Broyden mixing:
  rms(total) = 0.11198E-04    rms(broyden)= 0.11198E-04
  rms(prec ) = 0.11588E-04
  weight for this iteration     100.00

 eigenvalues of (default mixing * dielectric matrix)
  average eigenvalue GAMMA=   1.8807
  3.1095  2.7393  2.4666  2.4666  2.2093  0.8991  1.0831  0.9766  0.9766

 Free energy of the ion-electron system (eV)
  ---------------------------------------------------
  alpha Z        PSCENC =        13.42291310
  Ewald energy   TEWEN  =      -913.49083609
  -Hartree energ DENC   =       -58.59696368
  -exchange      EXHF   =         0.00000000
  -V(xc)+E(xc)   XCENC  =       -67.41890610
  PAW double counting   =      3559.43930632    -3421.99269126
  entropy T*S    EENTRO =        -0.00000000
  eigenvalues    EBANDS =        22.10376948
  atomic energy  EATOM  =       820.59587802
  Solvation  Ediel_sol  =         0.00000000
  ---------------------------------------------------
  free energy    TOTEN  =       -45.93753020 eV

  energy without entropy =      -45.93753020  energy(sigma->0) =      -45.93753020


--------------------------------------------------------------------------------------------------------




--------------------------------------- Iteration      1(  15)  ---------------------------------------


    POTLOK:  cpu time      0.0029: real time      0.0030
    SETDIJ:  cpu time      0.0026: real time      0.0027
     EDDAV:  cpu time      0.0295: real time      0.0296
       DOS:  cpu time      0.0001: real time      0.0001
    CHARGE:  cpu time      0.0072: real time      0.0072
    MIXING:  cpu time      0.0004: real time      0.0004
    --------------------------------------------
      LOOP:  cpu time      0.0428: real time      0.0430

 eigenvalue-minimisations  :   328
 total energy-change (2. order) :-0.1315721E-07  (-0.1332961E-10)
 number of electron      31.9999999 magnetization 
 augmentation part       -1.8304568 magnetization 

 Broyden mixing:
  rms(total) = 0.30668E-05    rms(broyden)= 0.30668E-05
  rms(prec ) = 0.31862E-05
  weight for this iteration     100.00

 eigenvalues of (default mixing * dielectric matrix)
  average eigenvalue GAMMA=   1.8025
  3.0823  2.7095  2.4973  2.4973  2.1798  0.9029  0.9029  1.0483  1.1023  1.1023

 Free energy of the ion-electron system (eV)
  ---------------------------------------------------
  alpha Z        PSCENC =        13.42291310
  Ewald energy   TEWEN  =      -913.49083609
  -Hartree energ DENC   =       -58.59700618
  -exchange      EXHF   =         0.00000000
  -V(xc)+E(xc)   XCENC  =       -67.41889723
  PAW double counting   =      3559.47491340    -3422.02831285
  entropy T*S    EENTRO =        -0.00000000
  eigenvalues    EBANDS =        22.10381762
  atomic energy  EATOM  =       820.59587802
  Solvation  Ediel_sol  =         0.00000000
  ---------------------------------------------------
  free energy    TOTEN  =       -45.93753021 eV

  energy without entropy =      -45.93753021  energy(sigma->0) =      -45.93753021


--------------------------------------------------------------------------------------------------------




--------------------------------------- Iteration      1(  16)  ---------------------------------------


    POTLOK:  cpu time      0.0029: real time      0.0030
    SETDIJ:  cpu time      0.0027: real time      0.0027
     EDDAV:  cpu time      0.0288: real time      0.0291
       DOS:  cpu time      0.0001: real time      0.0001
    --------------------------------------------
      LOOP:  cpu time      0.0345: real time      0.0349

 eigenvalue-minimisations  :   312
 total energy-change (2. order) : 0.2628894E-08  (-0.2479403E-11)
 number of electron      31.9999999 magnetization 
 augmentation part       -1.8304568 magnetization 

 Free energy of the ion-electron system (eV)
  ---------------------------------------------------
  alpha Z        PSCENC =        13.42291310
  Ewald energy   TEWEN  =      -913.49083609
  -Hartree energ DENC   =       -58.59698989
  -exchange      EXHF   =         0.00000000
  -V(xc)+E(xc)   XCENC  =       -67.41889812
  PAW double counting   =      3559.48258721    -3422.03598411
  entropy T*S    EENTRO =        -0.00000000
  eigenvalues    EBANDS =        22.10379966
  atomic energy  EATOM  =       820.59587802
  Solvation  Ediel_sol  =         0.00000000
  ---------------------------------------------------
  free energy    TOTEN  =       -45.93753021 eV

  energy without entropy =      -45.93753021  energy(sigma->0) =      -45.93753021


--------------------------------------------------------------------------------------------------------




 average (electrostatic) potential at core
  the test charge radii are     0.9892
  (the norm of the test charge is              1.0000)
       1 -83.0571       2 -83.0571       3 -83.0571       4 -83.0571       5 -83.0571
       6 -83.0571       7 -83.0571       8 -83.0571
 
 
 
 E-fermi :   5.9021     XC(G=0):  -9.5446     alpha+bet :-11.9545

 Fermi energy:         5.9021078846

 k-point     1 :       0.0000    0.0000    0.0000
  band No.  band energies     occupation 
      1      -6.2054      2.00000
      2      -2.0518      2.00000
      3      -2.0518      2.00000
      4      -2.0518      2.00000
      5      -2.0518      2.00000
      6      -2.0518      2.00000
      7      -2.0518      2.00000
      8       2.9019      2.00000
      9       2.9019      2.00000
     10       2.9019      2.00000
     11       2.9019      2.00000
     12       2.9019      2.00000
     13       2.9019      2.00000
     14       5.7721      2.00000
     15       5.7721      2.00000
     16       5.7721      2.00000
     17       6.3659      0.00000
     18       6.3659      0.00000
     19       6.3659      0.00000
     20       6.3659      0.00000
     21       6.3659      0.00000
     22       6.3659      0.00000
     23       8.2891      0.00000
     24       8.2891      0.00000

 k-point     2 :       0.2500    0.0000    0.0000
  band No.  band energies     occupation 
      1      -5.9319      2.00000
      2      -3.8056      2.00000
      3      -1.9713      2.00000
      4      -1.9713      2.00000
      5      -1.9713      2.00000
      6      -1.9713      2.00000
      7       0.0234      2.00000
      8       2.3182      2.00000
      9       2.3182      2.00000
     10       2.3182      2.00000
     11       2.3182      2.00000
     12       3.1483      2.00000
     13       3.1483      2.00000
     14       4.4332      2.00000
     15       4.9554      2.00000
     16       4.9554      2.00000
     17       6.2799      0.00000
     18       7.1941      0.00000
     19       7.6461      0.00000
     20       7.6461      0.00000
     21       7.6461      0.00000
     22       7.6461      0.00000
     23       7.7143      0.00000
     24       9.4390      0.00000

 k-point     3 :       0.5000    0.0000    0.0000
  band No.  band energies     occupation 
      1      -5.1212      2.00000
      2      -5.1212      2.00000
      3      -1.8826      2.00000
      4      -1.8826      2.00000
      5      -1.8826      2.00000
      6      -1.8826      2.00000
      7       1.8713      2.00000
      8       1.8713      2.00000
      9       1.8713      2.00000
     10       1.8713      2.00000
     11       2.2516      2.00000
     12       2.2516      2.00000
     13       3.8668      2.00000
     14       3.8668      2.00000
     15       3.8668      2.00000
     16       3.8668      2.00000
     17       6.8083      0.00000
     18       6.8083      0.00000
     19       8.7981      0.00000
     20       8.7981      0.00000
     21       9.9478      0.00000
     22       9.9478      0.00000
     23       9.9478      0.00000
     24       9.9478      0.00000

 k-point     4 :       0.2500    0.2500    0.0000
  band No.  band energies     occupation 
      1      -5.6638      2.00000
      2      -3.6052      2.00000
      3      -3.6052      2.00000
      4      -2.4596      2.00000
      5      -1.4625      2.00000
      6      -0.1951      2.00000
      7      -0.1951      2.00000
      8       1.4171      2.00000
      9       2.3723      2.00000
     10       2.3723      2.00000
     11       2.9834      2.00000
     12       2.9834      2.00000
     13       3.0769      2.00000
     14       3.3316      2.00000
     15       4.1186      2.00000
     16       5.4804      2.00000
     17       6.8660      0.00000
     18       7.6318      0.00000
     19       7.6318      0.00000
     20       8.3154      0.00000
     21       8.3154      0.00000
     22       8.7640      0.00000
     23       8.8495      0.00000
     24       9.0701      0.00000

 k-point     5 :       0.5000    0.2500    0.0000
  band No.  band energies     occupation 
      1      -4.8726      2.00000
      2      -4.8726      2.00000
      3      -3.0763      2.00000
      4      -3.0763      2.00000
      5      -0.8028      2.00000
      6      -0.8028      2.00000
      7       1.4745      2.00000
      8       1.4745      2.00000
      9       1.4934      2.00000
     10       1.4934      2.00000
     11       3.0250      2.00000
     12       3.0250      2.00000
     13       3.1593      2.00000
     14       3.1593      2.00000
     15       4.3320      2.00000
     16       4.3320      2.00000
     17       8.1458      0.00000
     18       8.1458      0.00000
     19       8.5530      0.00000
     20       8.5530      0.00000
     21       9.6073      0.00000
     22       9.6073      0.00000
     23       9.8792      0.00000
     24       9.8792      0.00000

 k-point     6 :       0.5000    0.5000    0.0000
  band No.  band energies     occupation 
      1      -4.1549      2.00000
      2      -4.1549      2.00000
      3      -4.1549      2.00000
      4      -4.1549      2.00000
      5       0.2821      2.00000
      6       0.2821      2.00000
      7       0.2821      2.00000
      8       0.2821      2.00000
      9       1.9734      2.00000
     10       1.9734      2.00000
     11       1.9734      2.00000
     12       1.9734      2.00000
     13       4.4372      2.00000
     14       4.4372      2.00000
     15       4.4372      2.00000
     16       4.4372      2.00000
     17       8.1381      0.00000
     18       8.1381      0.00000
     19       8.1381      0.00000
     20       8.1381      0.00000
     21      10.5146      0.00000
     22      10.5146      0.00000
     23      10.5146      0.00000
     24      10.5148      0.00000

 k-point     7 :       0.2500    0.2500    0.2500
  band No.  band energies     occupation 
      1      -5.4036      2.00000
      2      -3.4777      2.00000
      3      -3.4777      2.00000
      4      -3.4777      2.00000
      5      -0.6244      2.00000
      6      -0.6244      2.00000
      7      -0.6244      2.00000
      8       1.8229      2.00000
      9       2.1985      2.00000
     10       2.1985      2.00000
     11       2.1985      2.00000
     12       3.5526      2.00000
     13       3.5526      2.00000
     14       3.5526      2.00000
     15       5.0078      2.00000
     16       5.0078      2.00000
     17       7.1889      0.00000
     18       7.1889      0.00000
     19       7.1889      0.00000
     20       7.7265      0.00000
     21       9.2309      0.00000
     22       9.2309      0.00000
     23      10.1316      0.00000
     24      10.1316      0.00000

 k-point     8 :       0.5000    0.2500    0.2500
  band No.  band energies     occupation 
      1      -4.6440      2.00000
      2      -4.6440      2.00000
      3      -3.3215      2.00000
      4      -3.3215      2.00000
      5      -1.0382      2.00000
      6      -1.0382      2.00000
      7       0.4651      2.00000
      8       0.4651      2.00000
      9       2.2875      2.00000
     10       2.2875      2.00000
     11       3.5913      2.00000
     12       3.5913      2.00000
     13       3.9184      2.00000
     14       3.9184      2.00000
     15       4.1743      2.00000
     16       4.1743      2.00000
     17       7.9402      0.00000
     18       7.9402      0.00000
     19       8.7703      0.00000
     20       8.7703      0.00000
     21       8.8124      0.00000
     22       8.8124      0.00000
     23       9.3556      0.00000
     24       9.3556      0.00000

 k-point     9 :       0.5000    0.5000    0.2500
  band No.  band energies     occupation 
      1      -4.0226      2.00000
      2      -4.0226      2.00000
      3      -4.0226      2.00000
      4      -4.0226      2.00000
      5      -0.6338      2.00000
      6      -0.6338      2.00000
      7      -0.6338      2.00000
      8      -0.6338      2.00000
      9       3.2859      2.00000
     10       3.2859      2.00000
     11       3.2859      2.00000
     12       3.2859      2.00000
     13       4.5011      2.00000
     14       4.5011      2.00000
     15       4.5011      2.00000
     16       4.5011      2.00000
     17       8.0600      0.00000
     18       8.0600      0.00000
     19       8.0600      0.00000
     20       8.0600      0.00000
     21       9.3201      0.00000
     22       9.3201      0.00000
     23       9.3201      0.00000
     24       9.3201      0.00000

 k-point    10 :       0.5000    0.5000    0.5000
  band No.  band energies     occupation 
      1      -3.8605      2.00000
      2      -3.8605      2.00000
      3      -3.8605      2.00000
      4      -3.8605      2.00000
      5      -1.2346      2.00000
      6      -1.2346      2.00000
      7      -1.2346      2.00000
      8      -1.2346      2.00000
      9       4.5700      2.00000
     10       4.5700      2.00000
     11       4.5700      2.00000
     12       4.5700      2.00000
     13       4.5700      2.00000
     14       4.5700      2.00000
     15       4.5700      2.00000
     16       4.5700      2.00000
     17       7.2323      0.00000
     18       7.2323      0.00000
     19       7.2323      0.00000
     20       7.2323      0.00000
     21       9.0502      0.00000
     22       9.0502      0.00000
     23       9.0502      0.00000
     24       9.0502      0.00000


--------------------------------------------------------------------------------------------------------


 soft charge-density along one line, spin component           1
         0         1         2         3         4         5         6         7         8         9
 total charge-density along one line
 
 pseudopotential strength for first ion, spin component:           1
 18.404  25.676  -0.000   0.000  -0.000  -0.000   0.000  -0.000
 25.676  35.825  -0.000   0.000  -0.000  -0.000   0.000  -0.000
 -0.000  -0.000   4.177  -0.000  -0.000   7.782  -0.000  -0.000
  0.000   0.000  -0.000   4.177  -0.000  -0.000   7.782  -0.000
 -0.000  -0.000  -0.000  -0.000   4.177  -0.000  -0.000   7.782
 -0.000  -0.000   7.782  -0.000  -0.000  14.509  -0.000  -0.000
  0.000   0.000  -0.000   7.782  -0.000  -0.000  14.509  -0.000
 -0.000  -0.000  -0.000  -0.000   7.782  -0.000  -0.000  14.509
 total augmentation occupancy for first ion, spin component:           1
  5.948  -2.288  -0.000  -0.000   0.000   0.000   0.000  -0.000
 -2.288   0.989  -0.000   0.000  -0.000   0.000  -0.000  -0.000
 -0.000   0.000   3.000   0.000   0.000  -0.681   0.000   0.000
  0.000   0.000  -0.000   3.000   0.000  -0.000  -0.681  -0.000
  0.000   0.000   0.000   0.000   3.000   0.000  -0.000  -0.681
 -0.000   0.000  -0.681  -0.000   0.000   0.164  -0.000   0.000
 -0.000  -0.000   0.000  -0.681  -0.000   0.000   0.164  -0.000
  0.000  -0.000   0.000   0.000  -0.681   0.000   0.000   0.164


------------------------ aborting loop because EDIFF is reached ----------------------------------------


    CHARGE:  cpu time      0.0074: real time      0.0075
    FORLOC:  cpu time      0.0002: real time      0.0002
    FORNL :  cpu time      0.0156: real time      0.0157
    STRESS:  cpu time      0.0491: real time      0.0494
    FORCOR:  cpu time      0.0027: real time      0.0027
    FORHAR:  cpu time      0.0006: real time      0.0006
    MIXING:  cpu time      0.0002: real time      0.0002
    OFIELD:  cpu time      0.0000: real time      0.0000

  FORCE on cell =-STRESS in cart. coord.  units (eV):
  Direction    XX          YY          ZZ          XY          YZ          ZX
  --------------------------------------------------------------------------------------
  Alpha Z    13.42291    13.42291    13.42291
  Ewald    -304.49747  -304.49747  -304.49747     0.00000    -0.00000    -0.00000
  Hartree    19.53234    19.53234    19.53234    -0.00000    -0.00000    -0.00000
  E(xc)    -102.17518  -102.17518  -102.17518     0.00000    -0.00000    -0.00000
  Local    -116.43112  -116.43112  -116.43112     0.00000     0.00000    -0.00000
  n-local   310.36749   313.46759   307.30296    -2.05774    -1.72319    -0.77455
  augment   -46.02112   -46.02112   -46.02112     0.00000     0.00000     0.00000
  Kinetic   218.76610   229.96245   228.64236    -2.67662    -3.60413    -1.31420
  Fock        0.00000     0.00000     0.00000     0.00000     0.00000     0.00000
  -------------------------------------------------------------------------------------
  Total       0.00002     0.00002     0.00002    -0.00000    -0.00000     0.00000
  in kB       0.00016     0.00016     0.00016    -0.00000    -0.00000     0.00000
  external pressure =        0.00 kB  Pullay stress =        0.00 kB


 VOLUME and BASIS-vectors are now :
 -----------------------------------------------------------------------------
  energy-cutoff  :      318.00
  volume of cell :      160.50
      direct lattice vectors                 reciprocal lattice vectors
     5.434537210  0.000000000  0.000000000     0.184008309  0.000000000  0.000000000
     0.000000000  5.434537210  0.000000000     0.000000000  0.184008309  0.000000000
     0.000000000  0.000000000  5.434537210     0.000000000  0.000000000  0.184008309

  length of vectors
     5.434537210  5.434537210  5.434537210     0.184008309  0.184008309  0.184008309


 FORCES acting on ions
    electron-ion (+dipol)            ewald-force                    non-local-force                 convergence-correction
 -----------------------------------------------------------------------------------------------
   0.105E-13 0.809E-14 -.954E-13   -.178E-13 -.711E-14 -.355E-14   -.154E-16 0.856E-17 -.657E-17   -.310E-15 0.229E-15 0.262E-14
   -.131E-13 -.117E-12 -.379E-14   -.749E-14 -.688E-14 0.356E-14   0.292E-16 -.409E-17 0.225E-17   -.208E-14 0.280E-14 0.396E-14
   0.131E-14 0.203E-12 0.267E-14   -.107E-13 -.711E-14 0.000E+00   -.151E-16 0.200E-16 0.847E-17   -.208E-14 0.144E-14 0.178E-14
   -.170E-13 -.118E-12 0.356E-14   -.137E-14 -.712E-14 0.720E-14   0.449E-17 -.829E-17 -.555E-17   -.208E-14 -.466E-14 0.219E-14
   0.719E-14 0.215E-15 -.137E-14   0.000E+00 0.711E-14 -.711E-14   -.156E-16 -.289E-16 -.473E-17   -.637E-15 0.367E-15 0.180E-14
   -.458E-14 0.305E-12 -.316E-12   0.712E-14 0.685E-14 0.915E-16   0.227E-16 0.249E-16 0.319E-17   -.120E-14 0.142E-14 0.204E-14
   0.327E-14 -.111E-14 -.408E-15   0.711E-14 0.711E-14 -.355E-14   -.774E-17 0.857E-17 -.131E-16   0.464E-15 0.153E-14 0.271E-14
   -.170E-13 0.113E-12 -.517E-12   0.142E-13 0.711E-14 0.350E-14   0.114E-16 -.161E-16 0.167E-16   -.126E-14 -.315E-14 0.428E-14
 -----------------------------------------------------------------------------------------------
   -.294E-13 0.394E-12 -.928E-12   -.886E-14 -.408E-16 0.133E-15   0.140E-16 0.454E-17 0.716E-18   -.918E-14 -.196E-16 0.214E-13
 
 
 POSITION                                       TOTAL-FORCE (eV/Angst)
 -----------------------------------------------------------------------------------
      2.71727      0.00000      0.00000        -0.000000      0.000000      0.000000
      1.35863      1.35863      4.07590        -0.000000     -0.000000     -0.000000
      2.71727      2.71727      2.71727         0.000000      0.000000      0.000000
      1.35863      4.07590      1.35863        -0.000000     -0.000000     -0.000000
      0.00000      0.00000      2.71727         0.000000     -0.000000      0.000000
      4.07590      1.35863      1.35863        -0.000000      0.000000     -0.000000
      0.00000      2.71727      0.00000         0.000000     -0.000000      0.000000
      4.07590      4.07590      4.07590        -0.000000      0.000000     -0.000000
 -----------------------------------------------------------------------------------
    total drift:                               -0.000000      0.000000     -0.000000


--------------------------------------------------------------------------------------------------------



  FREE ENERGIE OF THE ION-ELECTRON SYSTEM (eV)
  ---------------------------------------------------
  free  energy   TOTEN  =       -45.93753021 eV

  energy  without entropy=      -45.93753021  energy(sigma->0) =      -45.93753021
 


--------------------------------------------------------------------------------------------------------


    POTLOK:  cpu time      0.0058: real time      0.0060


--------------------------------------------------------------------------------------------------------




--------------------------------------------------------------------------------------------------------


    WAVPRE:  cpu time      0.0013: real time      0.0048
    FEWALD:  cpu time      0.0001: real time      0.0001
    GENKIN:  cpu time      0.0011: real time      0.0011
    ORTHCH:  cpu time      0.0022: real time      0.0022
     LOOP+:  cpu time      0.8725: real time      0.8845


--------------------------------------- Iteration      2(   1)  ---------------------------------------


    POTLOK:  cpu time      0.0026: real time      0.0026
    SETDIJ:  cpu time      0.0026: real time      0.0026
     EDDAV:  cpu time      0.0284: real time      0.0286
       DOS:  cpu time      0.0001: real time      0.0001
    CHARGE:  cpu time      0.0070: real time      0.0070
    MIXING:  cpu time      0.0002: real time      0.0002
    --------------------------------------------
      LOOP:  cpu time      0.0409: real time      0.0412

 eigenvalue-minimisations  :   304
 total energy-change (2. order) : 0.1856051E-08  (-0.4687797E-11)
 number of electron      31.9999999 magnetization 
 augmentation part       -1.8304568 magnetization 

 Broyden mixing:
  rms(total) = 0.61648E-06    rms(broyden)= 0.61638E-06
  rms(prec ) = 0.13043E-05
  weight for this iteration     100.00

 Free energy of the ion-electron system (eV)
  ---------------------------------------------------
  alpha Z        PSCENC =        13.42290914
  Ewald energy   TEWEN  =      -913.49074640
  -Hartree energ DENC   =       -58.59699982
  -exchange      EXHF   =         0.00000000
  -V(xc)+E(xc)   XCENC  =       -67.41890183
  PAW double counting   =      3559.48217964    -3422.03557702
  entropy T*S    EENTRO =        -0.00000000
  eigenvalues    EBANDS =        22.10372805
  atomic energy  EATOM  =       820.59587802
  Solvation  Ediel_sol  =         0.00000000
  ---------------------------------------------------
  free energy    TOTEN  =       -45.93753021 eV

  energy without entropy =      -45.93753021  energy(sigma->0) =      -45.93753021


--------------------------------------------------------------------------------------------------------




--------------------------------------- Iteration      2(   2)  ---------------------------------------


    POTLOK:  cpu time      0.0029: real time      0.0030
    SETDIJ:  cpu time      0.0026: real time      0.0026
     EDDAV:  cpu time      0.0275: real time      0.0276
       DOS:  cpu time      0.0001: real time      0.0001
    CHARGE:  cpu time      0.0070: real time      0.0070
    MIXING:  cpu time      0.0003: real time      0.0003
    --------------------------------------------
      LOOP:  cpu time      0.0405: real time      0.0407

 eigenvalue-minimisations  :   288
 total energy-change (2. order) : 0.1515446E-09  (-0.6934162E-12)
 number of electron      31.9999999 magnetization 
 augmentation part       -1.8304568 magnetization 

 Broyden mixing:
  rms(total) = 0.44188E-06    rms(broyden)= 0.44187E-06
  rms(prec ) = 0.73854E-06
  weight for this iteration     100.00

 eigenvalues of (default mixing * dielectric matrix)
  average eigenvalue GAMMA=   1.6882
  1.6882

 Free energy of the ion-electron system (eV)
  ---------------------------------------------------
  alpha Z        PSCENC =        13.42290914
  Ewald energy   TEWEN  =      -913.49074640
  -Hartree energ DENC   =       -58.59700893
  -exchange      EXHF   =         0.00000000
  -V(xc)+E(xc)   XCENC  =       -67.41890149
  PAW double counting   =      3559.48167994    -3422.03507714
  entropy T*S    EENTRO =        -0.00000000
  eigenvalues    EBANDS =        22.10373664
  atomic energy  EATOM  =       820.59587802
  Solvation  Ediel_sol  =         0.00000000
  ---------------------------------------------------
  free energy    TOTEN  =       -45.93753021 eV

  energy without entropy =      -45.93753021  energy(sigma->0) =      -45.93753021


--------------------------------------------------------------------------------------------------------




--------------------------------------- Iteration      2(   3)  ---------------------------------------


    POTLOK:  cpu time      0.0028: real time      0.0029
    SETDIJ:  cpu time      0.0026: real time      0.0026
     EDDAV:  cpu time      0.0276: real time      0.0277
       DOS:  cpu time      0.0001: real time      0.0001
    CHARGE:  cpu time      0.0071: real time      0.0072
    MIXING:  cpu time      0.0003: real time      0.0003
    --------------------------------------------
      LOOP:  cpu time      0.0405: real time      0.0408

 eigenvalue-minimisations  :   288
 total energy-change (2. order) : 0.5857146E-09  (-0.6891016E-13)
 number of electron      31.9999999 magnetization 
 augmentation part       -1.8304568 magnetization 

 Broyden mixing:
  rms(total) = 0.87878E-07    rms(broyden)= 0.87876E-07
  rms(prec ) = 0.13589E-06
  weight for this iteration     100.00

 eigenvalues of (default mixing * dielectric matrix)
  average eigenvalue GAMMA=   1.6642
  1.0570  2.2714

 Free energy of the ion-electron system (eV)
  ---------------------------------------------------
  alpha Z        PSCENC =        13.42290914
  Ewald energy   TEWEN  =      -913.49074640
  -Hartree energ DENC   =       -58.59701725
  -exchange      EXHF   =         0.00000000
  -V(xc)+E(xc)   XCENC  =       -67.41890144
  PAW double counting   =      3559.48045000    -3422.03384685
  entropy T*S    EENTRO =        -0.00000000
  eigenvalues    EBANDS =        22.10374457
  atomic energy  EATOM  =       820.59587802
  Solvation  Ediel_sol  =         0.00000000
  ---------------------------------------------------
  free energy    TOTEN  =       -45.93753021 eV

  energy without entropy =      -45.93753021  energy(sigma->0) =      -45.93753021


--------------------------------------------------------------------------------------------------------




--------------------------------------- Iteration      2(   4)  ---------------------------------------


    POTLOK:  cpu time      0.0029: real time      0.0030
    SETDIJ:  cpu time      0.0026: real time      0.0026
     EDDAV:  cpu time      0.0276: real time      0.0278
       DOS:  cpu time      0.0001: real time      0.0001
    CHARGE:  cpu time      0.0071: real time      0.0071
    MIXING:  cpu time      0.0003: real time      0.0004
    --------------------------------------------
      LOOP:  cpu time      0.0407: real time      0.0409

 eigenvalue-minimisations  :   288
 total energy-change (2. order) : 0.1565468E-09  (-0.3473133E-14)
 number of electron      31.9999999 magnetization 
 augmentation part       -1.8304568 magnetization 

 Broyden mixing:
  rms(total) = 0.36413E-07    rms(broyden)= 0.36413E-07
  rms(prec ) = 0.47895E-07
  weight for this iteration     100.00

 eigenvalues of (default mixing * dielectric matrix)
  average eigenvalue GAMMA=   1.7299
  2.3992  1.3422  1.4483

 Free energy of the ion-electron system (eV)
  ---------------------------------------------------
  alpha Z        PSCENC =        13.42290914
  Ewald energy   TEWEN  =      -913.49074640
  -Hartree energ DENC   =       -58.59701856
  -exchange      EXHF   =         0.00000000
  -V(xc)+E(xc)   XCENC  =       -67.41890153
  PAW double counting   =      3559.48018409    -3422.03358080
  entropy T*S    EENTRO =        -0.00000000
  eigenvalues    EBANDS =        22.10374582
  atomic energy  EATOM  =       820.59587802
  Solvation  Ediel_sol  =         0.00000000
  ---------------------------------------------------
  free energy    TOTEN  =       -45.93753021 eV

  energy without entropy =      -45.93753021  energy(sigma->0) =      -45.93753021


--------------------------------------------------------------------------------------------------------




--------------------------------------- Iteration      2(   5)  ---------------------------------------


    POTLOK:  cpu time      0.0027: real time      0.0028
    SETDIJ:  cpu time      0.0026: real time      0.0026
     EDDAV:  cpu time      0.0275: real time      0.0276
       DOS:  cpu time      0.0001: real time      0.0001
    --------------------------------------------
      LOOP:  cpu time      0.0329: real time      0.0331

 eigenvalue-minimisations  :   288
 total energy-change (2. order) : 0.1557510E-10  ( 0.1468725E-13)
 number of electron      31.9999999 magnetization 
 augmentation part       -1.8304568 magnetization 

 Free energy of the ion-electron system (eV)
  ---------------------------------------------------
  alpha Z        PSCENC =        13.42290914
  Ewald energy   TEWEN  =      -913.49074640
  -Hartree energ DENC   =       -58.59701877
  -exchange      EXHF   =         0.00000000
  -V(xc)+E(xc)   XCENC  =       -67.41890159
  PAW double counting   =      3559.48028519    -3422.03368181
  entropy T*S    EENTRO =        -0.00000000
  eigenvalues    EBANDS =        22.10374600
  atomic energy  EATOM  =       820.59587802
  Solvation  Ediel_sol  =         0.00000000
  ---------------------------------------------------
  free energy    TOTEN  =       -45.93753021 eV

  energy without entropy =      -45.93753021  energy(sigma->0) =      -45.93753021


--------------------------------------------------------------------------------------------------------




 average (electrostatic) potential at core
  the test charge radii are     0.9892
  (the norm of the test charge is              1.0000)
       1 -83.0571       2 -83.0571       3 -83.0571       4 -83.0571       5 -83.0571
       6 -83.0571       7 -83.0571       8 -83.0571
 
 
 
 E-fermi :   5.9019     XC(G=0):  -9.5446     alpha+bet :-11.9545

 Fermi energy:         5.9019409482

 k-point     1 :       0.0000    0.0000    0.0000
  band No.  band energies     occupation 
      1      -6.2054      2.00000
      2      -2.0518      2.00000
      3      -2.0518      2.00000
      4      -2.0518      2.00000
      5      -2.0518      2.00000
      6      -2.0518      2.00000
      7      -2.0518      2.00000
      8       2.9019      2.00000
      9       2.9019      2.00000
     10       2.9019      2.00000
     11       2.9019      2.00000
     12       2.9019      2.00000
     13       2.9019      2.00000
     14       5.7721      2.00000
     15       5.7721      2.00000
     16       5.7721      2.00000
     17       6.3659      0.00000
     18       6.3659      0.00000
     19       6.3659      0.00000
     20       6.3659      0.00000
     21       6.3659      0.00000
     22       6.3659      0.00000
     23       8.2891      0.00000
     24       8.2891      0.00000

[...]
  entropy T*S    EENTRO =        -0.00000000
  eigenvalues    EBANDS =        22.10378653
  atomic energy  EATOM  =       820.59587802
  Solvation  Ediel_sol  =         0.00000000
  ---------------------------------------------------
  free energy    TOTEN  =       -45.93753021 eV

  energy without entropy =      -45.93753021  energy(sigma->0) =      -45.93753021


--------------------------------------------------------------------------------------------------------




--------------------------------------- Iteration      3(   5)  ---------------------------------------


    POTLOK:  cpu time      0.0029: real time      0.0030
    SETDIJ:  cpu time      0.0026: real time      0.0026
     EDDAV:  cpu time      0.0262: real time      0.0264
       DOS:  cpu time      0.0001: real time      0.0001
    --------------------------------------------
      LOOP:  cpu time      0.0318: real time      0.0321

 eigenvalue-minimisations  :   264
 total energy-change (2. order) : 0.2864908E-10  (-0.7565216E-13)
 number of electron      31.9999999 magnetization 
 augmentation part       -1.8304568 magnetization 

 Free energy of the ion-electron system (eV)
  ---------------------------------------------------
  alpha Z        PSCENC =        13.42291152
  Ewald energy   TEWEN  =      -913.49080025
  -Hartree energ DENC   =       -58.59701067
  -exchange      EXHF   =         0.00000000
  -V(xc)+E(xc)   XCENC  =       -67.41889857
  PAW double counting   =      3559.48156273    -3422.03495989
  entropy T*S    EENTRO =        -0.00000000
  eigenvalues    EBANDS =        22.10378689
  atomic energy  EATOM  =       820.59587802
  Solvation  Ediel_sol  =         0.00000000
  ---------------------------------------------------
  free energy    TOTEN  =       -45.93753021 eV

  energy without entropy =      -45.93753021  energy(sigma->0) =      -45.93753021


--------------------------------------------------------------------------------------------------------




 average (electrostatic) potential at core
  the test charge radii are     0.9892
  (the norm of the test charge is              1.0000)
       1 -83.0571       2 -83.0571       3 -83.0571       4 -83.0571       5 -83.0571
       6 -83.0571       7 -83.0571       8 -83.0571
 
 
 
 E-fermi :   5.9019     XC(G=0):  -9.5446     alpha+bet :-11.9545

 Fermi energy:         5.9019392631

 k-point     1 :       0.0000    0.0000    0.0000
  band No.  band energies     occupation 
      1      -6.2054      2.00000
      2      -2.0518      2.00000
      3      -2.0518      2.00000
      4      -2.0518      2.00000
      5      -2.0518      2.00000
      6      -2.0518      2.00000
      7      -2.0518      2.00000
      8       2.9019      2.00000
      9       2.9019      2.00000
     10       2.9019      2.00000
     11       2.9019      2.00000
     12       2.9019      2.00000
     13       2.9019      2.00000
     14       5.7721      2.00000
     15       5.7721      2.00000
     16       5.7721      2.00000
     17       6.3659      0.00000
     18       6.3659      0.00000
     19       6.3659      0.00000
     20       6.3659      0.00000
     21       6.3659      0.00000
     22       6.3659      0.00000
     23       8.2891      0.00000
     24       8.2891      0.00000

 k-point     2 :       0.2500    0.0000    0.0000
  band No.  band energies     occupation 
      1      -5.9319      2.00000
      2      -3.8056      2.00000
      3      -1.9713      2.00000
      4      -1.9713      2.00000
      5      -1.9713      2.00000
      6      -1.9713      2.00000
      7       0.0234      2.00000
      8       2.3182      2.00000
      9       2.3182      2.00000
     10       2.3182      2.00000
     11       2.3182      2.00000
     12       3.1483      2.00000
     13       3.1483      2.00000
     14       4.4332      2.00000
     15       4.9554      2.00000
     16       4.9554      2.00000
     17       6.2799      0.00000
     18       7.1941      0.00000
     19       7.6461      0.00000
     20       7.6461      0.00000
     21       7.6461      0.00000
     22       7.6461      0.00000
     23       7.7143      0.00000
     24       9.4390      0.00000

 k-point     3 :       0.5000    0.0000    0.0000
  band No.  band energies     occupation 
      1      -5.1212      2.00000
      2      -5.1212      2.00000
      3      -1.8826      2.00000
      4      -1.8826      2.00000
      5      -1.8826      2.00000
      6      -1.8826      2.00000
      7       1.8713      2.00000
      8       1.8713      2.00000
      9       1.8713      2.00000
     10       1.8713      2.00000
     11       2.2516      2.00000
     12       2.2516      2.00000
     13       3.8668      2.00000
     14       3.8668      2.00000
     15       3.8668      2.00000
     16       3.8668      2.00000
     17       6.8083      0.00000
     18       6.8083      0.00000
     19       8.7981      0.00000
     20       8.7981      0.00000
     21       9.9478      0.00000
     22       9.9478      0.00000
     23       9.9478      0.00000
     24       9.9478      0.00000

 k-point     4 :       0.2500    0.2500    0.0000
  band No.  band energies     occupation 
      1      -5.6638      2.00000
      2      -3.6052      2.00000
      3      -3.6052      2.00000
      4      -2.4596      2.00000
      5      -1.4625      2.00000
      6      -0.1951      2.00000
      7      -0.1951      2.00000
      8       1.4171      2.00000
      9       2.3723      2.00000
     10       2.3723      2.00000
     11       2.9834      2.00000
     12       2.9834      2.00000
     13       3.0769      2.00000
     14       3.3316      2.00000
     15       4.1186      2.00000
     16       5.4804      2.00000
     17       6.8660      0.00000
     18       7.6318      0.00000
     19       7.6318      0.00000
     20       8.3154      0.00000
     21       8.3154      0.00000
     22       8.7640      0.00000
     23       8.8495      0.00000
     24       9.0701      0.00000

 k-point     5 :       0.5000    0.2500    0.0000
  band No.  band energies     occupation 
      1      -4.8726      2.00000
      2      -4.8726      2.00000
      3      -3.0763      2.00000
      4      -3.0763      2.00000
      5      -0.8028      2.00000
      6      -0.8028      2.00000
      7       1.4745      2.00000
      8       1.4745      2.00000
      9       1.4934      2.00000
     10       1.4934      2.00000
     11       3.0250      2.00000
     12       3.0250      2.00000
     13       3.1593      2.00000
     14       3.1593      2.00000
     15       4.3320      2.00000
     16       4.3320      2.00000
     17       8.1458      0.00000
     18       8.1458      0.00000
     19       8.5530      0.00000
     20       8.5530      0.00000
     21       9.6073      0.00000
     22       9.6073      0.00000
     23       9.8792      0.00000
     24       9.8792      0.00000

 k-point     6 :       0.5000    0.5000    0.0000
  band No.  band energies     occupation 
      1      -4.1549      2.00000
      2      -4.1549      2.00000
      3      -4.1549      2.00000
      4      -4.1549      2.00000
      5       0.2821      2.00000
      6       0.2821      2.00000
      7       0.2821      2.00000
      8       0.2821      2.00000
      9       1.9734      2.00000
     10       1.9734      2.00000
     11       1.9734      2.00000
     12       1.9734      2.00000
     13       4.4372      2.00000
     14       4.4372      2.00000
     15       4.4372      2.00000
     16       4.4372      2.00000
     17       8.1381      0.00000
     18       8.1381      0.00000
     19       8.1381      0.00000
     20       8.1381      0.00000
     21      10.5146      0.00000
     22      10.5146      0.00000
     23      10.5146      0.00000
     24      10.5146      0.00000

 k-point     7 :       0.2500    0.2500    0.2500
  band No.  band energies     occupation 
      1      -5.4036      2.00000
      2      -3.4777      2.00000
      3      -3.4777      2.00000
      4      -3.4777      2.00000
      5      -0.6244      2.00000
      6      -0.6244      2.00000
      7      -0.6244      2.00000
      8       1.8229      2.00000
      9       2.1985      2.00000
     10       2.1985      2.00000
     11       2.1985      2.00000
     12       3.5526      2.00000
     13       3.5526      2.00000
     14       3.5526      2.00000
     15       5.0078      2.00000
     16       5.0078      2.00000
     17       7.1889      0.00000
     18       7.1889      0.00000
     19       7.1889      0.00000
     20       7.7265      0.00000
     21       9.2309      0.00000
     22       9.2309      0.00000
     23      10.1316      0.00000
     24      10.1316      0.00000

 k-point     8 :       0.5000    0.2500    0.2500
  band No.  band energies     occupation 
      1      -4.6440      2.00000
      2      -4.6440      2.00000
      3      -3.3215      2.00000
      4      -3.3215      2.00000
      5      -1.0382      2.00000
      6      -1.0382      2.00000
      7       0.4651      2.00000
      8       0.4651      2.00000
      9       2.2875      2.00000
     10       2.2875      2.00000
     11       3.5913      2.00000
     12       3.5913      2.00000
     13       3.9184      2.00000
     14       3.9184      2.00000
     15       4.1743      2.00000
     16       4.1743      2.00000
     17       7.9402      0.00000
     18       7.9402      0.00000
     19       8.7703      0.00000
     20       8.7703      0.00000
     21       8.8124      0.00000
     22       8.8124      0.00000
     23       9.3556      0.00000
     24       9.3556      0.00000

 k-point     9 :       0.5000    0.5000    0.2500
  band No.  band energies     occupation 
      1      -4.0226      2.00000
      2      -4.0226      2.00000
      3      -4.0226      2.00000
      4      -4.0226      2.00000
      5      -0.6338      2.00000
      6      -0.6338      2.00000
      7      -0.6338      2.00000
      8      -0.6338      2.00000
      9       3.2859      2.00000
     10       3.2859      2.00000
     11       3.2859      2.00000
     12       3.2859      2.00000
     13       4.5011      2.00000
     14       4.5011      2.00000
     15       4.5011      2.00000
     16       4.5011      2.00000
     17       8.0600      0.00000
     18       8.0600      0.00000
     19       8.0600      0.00000
     20       8.0600      0.00000
     21       9.3201      0.00000
     22       9.3201      0.00000
     23       9.3201      0.00000
     24       9.3201      0.00000

 k-point    10 :       0.5000    0.5000    0.5000
  band No.  band energies     occupation 
      1      -3.8605      2.00000
      2      -3.8605      2.00000
      3      -3.8605      2.00000
      4      -3.8605      2.00000
      5      -1.2346      2.00000
      6      -1.2346      2.00000
      7      -1.2346      2.00000
      8      -1.2346      2.00000
      9       4.5700      2.00000
     10       4.5700      2.00000
     11       4.5700      2.00000
     12       4.5700      2.00000
     13       4.5700      2.00000
     14       4.5700      2.00000
     15       4.5700      2.00000
     16       4.5700      2.00000
     17       7.2323      0.00000
     18       7.2323      0.00000
     19       7.2323      0.00000
     20       7.2323      0.00000
     21       9.0502      0.00000
     22       9.0502      0.00000
     23       9.0502      0.00000
     24       9.0502      0.00000


--------------------------------------------------------------------------------------------------------


 soft charge-density along one line, spin component           1
         0         1         2         3         4         5         6         7         8         9
 total charge-density along one line
 
 pseudopotential strength for first ion, spin component:           1
 18.404  25.676  -0.000   0.000  -0.000  -0.000   0.000  -0.000
 25.676  35.825  -0.000   0.000  -0.000  -0.000   0.000  -0.000
 -0.000  -0.000   4.177  -0.000  -0.000   7.782  -0.000  -0.000
  0.000   0.000  -0.000   4.177  -0.000  -0.000   7.782  -0.000
 -0.000  -0.000  -0.000  -0.000   4.177  -0.000  -0.000   7.782
 -0.000  -0.000   7.782  -0.000  -0.000  14.509  -0.000  -0.000
  0.000   0.000  -0.000   7.782  -0.000  -0.000  14.509  -0.000
 -0.000  -0.000  -0.000  -0.000   7.782  -0.000  -0.000  14.509
 total augmentation occupancy for first ion, spin component:           1
  5.948  -2.288  -0.000  -0.000   0.000   0.000   0.000  -0.000
 -2.288   0.989   0.000  -0.000   0.000  -0.000   0.000   0.000
 -0.000  -0.000   3.000  -0.000  -0.000  -0.681   0.000   0.000
 -0.000   0.000   0.000   3.000  -0.000   0.000  -0.681  -0.000
 -0.000   0.000   0.000  -0.000   3.000   0.000  -0.000  -0.681
 -0.000   0.000  -0.681   0.000   0.000   0.164  -0.000   0.000
  0.000  -0.000   0.000  -0.681  -0.000   0.000   0.164   0.000
 -0.000   0.000   0.000  -0.000  -0.681   0.000  -0.000   0.164


------------------------ aborting loop because EDIFF is reached ----------------------------------------


    CHARGE:  cpu time      0.0071: real time      0.0072
    FORLOC:  cpu time      0.0003: real time      0.0003
    FORNL :  cpu time      0.0153: real time      0.0154
    STRESS:  cpu time      0.0486: real time      0.0488
    FORCOR:  cpu time      0.0026: real time      0.0026
    FORHAR:  cpu time      0.0006: real time      0.0006
    MIXING:  cpu time      0.0002: real time      0.0002
    OFIELD:  cpu time      0.0000: real time      0.0000

  FORCE on cell =-STRESS in cart. coord.  units (eV):
  Direction    XX          YY          ZZ          XY          YZ          ZX
  --------------------------------------------------------------------------------------
  Alpha Z    13.42291    13.42291    13.42291
  Ewald    -304.49745  -304.49745  -304.49745     0.00000     0.00000    -0.00000
  Hartree    19.53234    19.53234    19.53234    -0.00000    -0.00000    -0.00000
  E(xc)    -102.17518  -102.17518  -102.17518     0.00000    -0.00000    -0.00000
  Local    -116.43112  -116.43112  -116.43112     0.00000     0.00000    -0.00000
  n-local   310.36747   313.46757   307.30294    -2.05774    -1.72319    -0.77455
  augment   -46.02112   -46.02112   -46.02112     0.00000     0.00000     0.00000
  Kinetic   218.76609   229.96243   228.64234    -2.67662    -3.60413    -1.31420
  Fock        0.00000     0.00000     0.00000     0.00000     0.00000     0.00000
  -------------------------------------------------------------------------------------
  Total      -0.00001    -0.00001    -0.00001    -0.00000    -0.00000     0.00000
  in kB      -0.00008    -0.00008    -0.00008    -0.00000    -0.00000     0.00000
  external pressure =       -0.00 kB  Pullay stress =        0.00 kB


 VOLUME and BASIS-vectors are now :
 -----------------------------------------------------------------------------
  energy-cutoff  :      318.00
  volume of cell :      160.50
      direct lattice vectors                 reciprocal lattice vectors
     5.434537423 -0.000000000  0.000000000     0.184008301  0.000000000  0.000000000
    -0.000000000  5.434537423 -0.000000000     0.000000000  0.184008301  0.000000000
    -0.000000000 -0.000000000  5.434537423    -0.000000000  0.000000000  0.184008301

  length of vectors
     5.434537423  5.434537423  5.434537423     0.184008301  0.184008301  0.184008301


 FORCES acting on ions
    electron-ion (+dipol)            ewald-force                    non-local-force                 convergence-correction
 -----------------------------------------------------------------------------------------------
   0.222E-13 0.818E-14 -.996E-13   0.000E+00 0.000E+00 -.355E-14   -.762E-17 0.931E-17 0.292E-17   -.148E-14 -.336E-14 -.665E-15
   -.235E-13 -.113E-12 -.538E-14   -.267E-15 -.716E-14 0.711E-14   0.266E-17 -.492E-17 -.220E-17   -.221E-14 -.315E-14 -.334E-15
   0.183E-13 0.203E-12 -.149E-14   0.000E+00 0.000E+00 -.107E-13   -.159E-17 0.756E-17 0.129E-16   -.127E-14 -.142E-14 0.180E-14
   -.235E-13 -.113E-12 -.690E-15   -.818E-16 -.712E-14 -.289E-15   -.383E-17 -.713E-17 -.165E-16   -.190E-14 -.298E-14 -.866E-15
   0.222E-13 -.129E-14 -.562E-14   0.000E+00 0.711E-14 0.000E+00   0.627E-17 -.890E-17 0.410E-17   0.290E-14 -.292E-14 0.252E-14
   -.275E-13 0.306E-12 -.321E-12   -.906E-17 0.918E-15 0.104E-13   0.231E-17 -.460E-17 -.121E-17   0.137E-14 -.256E-14 -.379E-15
   0.242E-13 -.916E-16 -.375E-14   0.000E+00 0.711E-14 -.711E-14   -.157E-17 0.756E-17 0.261E-17   0.317E-14 -.128E-14 -.178E-15
   -.177E-13 0.112E-12 -.520E-12   0.315E-17 -.897E-17 0.360E-14   -.366E-17 -.532E-17 -.674E-17   0.130E-14 -.232E-14 -.286E-15
 -----------------------------------------------------------------------------------------------
   -.523E-14 0.402E-12 -.957E-12   -.355E-15 0.839E-15 -.522E-15   -.704E-17 -.643E-17 -.403E-17   0.186E-14 -.200E-13 0.161E-14
 
 
 POSITION                                       TOTAL-FORCE (eV/Angst)
 -----------------------------------------------------------------------------------
      2.71727     -0.00000      0.00000         0.000000     -0.000000     -0.000000
      1.35863      1.35863      4.07590        -0.000000      0.000000      0.000000
      2.71727      2.71727      2.71727        -0.000000      0.000000     -0.000000
      1.35863      4.07590      1.35863         0.000000     -0.000000      0.000000
     -0.00000     -0.00000      2.71727        -0.000000     -0.000000     -0.000000
      4.07590      1.35863      1.35863         0.000000     -0.000000      0.000000
     -0.00000      2.71727     -0.00000        -0.000000     -0.000000     -0.000000
      4.07590      4.07590      4.07590         0.000000      0.000000      0.000000
 -----------------------------------------------------------------------------------
    total drift:                               -0.000000      0.000000     -0.000000


--------------------------------------------------------------------------------------------------------



  FREE ENERGIE OF THE ION-ELECTRON SYSTEM (eV)
  ---------------------------------------------------
  free  energy   TOTEN  =       -45.93753021 eV

  energy  without entropy=      -45.93753021  energy(sigma->0) =      -45.93753021
 
 d Force = 0.0000000E+00[ 0.000E+00, 0.000E+00]  d Energy = 0.5763923E-09-0.576E-09
 d Force = 0.0000000E+00[ 0.000E+00, 0.000E+00]  d Ewald  = 0.5384734E-04-0.538E-04


--------------------------------------------------------------------------------------------------------


    POTLOK:  cpu time      0.0054: real time      0.0054


--------------------------------------------------------------------------------------------------------




--------------------------------------------------------------------------------------------------------


  
 reached required accuracy - stopping structural energy minimisation
     LOOP+:  cpu time      0.2748: real time      0.2822
    4ORBIT:  cpu time      0.0000: real time      0.0000

 total amount of memory used by VASP MPI-rank0    32857. kBytes
=======================================================================

   base      :      30000. kBytes
   nonl-proj :        399. kBytes
   fftplans  :       1462. kBytes
   grid      :        733. kBytes
   one-center:          6. kBytes
   wavefun   :        257. kBytes
 
  
  
 General timing and accounting informations for this job:
 ========================================================
  
                  Total CPU time used (sec):        1.744
                            User time (sec):        1.528
                          System time (sec):        0.216
                         Elapsed time (sec):        1.929
  
                   Maximum memory used (kb):      169536.
                   Average memory used (kb):          N/A
  
                          Minor page faults:        11985
                          Major page faults:            0
                 Voluntary context switches:          800
