<?xml version="1.0" encoding="ISO-8859-1"?>
<modeling>
 <generator>
  <i name="program" type="string">vasp </i>
  <i name="version" type="string">6.3.2  </i>
  <i name="subversion" type="string">27Jun22 (build Oct 14 2022 12:13:54) complex                          parallel </i>
  <i name="platform" type="string">LinuxIFC </i>
  <i name="date" type="string">2023 04 03 </i>
  <i name="time" type="string">14:21:26 </i>
 </generator>
 <incar>
  <i type="string" name="PREC">Accurate</i>
  <i type="int" name="IALGO">    38</i>
  <i type="logical" name="ADDGRID"> T  </i>
  <i type="int" name="NELMIN">     5</i>
  <i type="int" name="IBRION">     2</i>
  <i name="EDIFF">      0.00000001</i>
  <i name="EDIFFG">     -0.00000100</i>
  <i type="int" name="NSW">   500</i>
  <i type="int" name="ISIF">     3</i>
  <i name="ENCUT">    318.00000000</i>
  <i type="logical" name="LREAL"> F  </i>
  <i type="int" name="ISMEAR">     0</i>
  <i name="SIGMA">      0.02000000</i>
  <i type="logical" name="LWAVE"> F  </i>
  <i type="logical" name="LCHARG"> F  </i>
  <i type="string" name="GGA">Ps</i>
 </incar>
 <primitive_cell>
  <structure name="primitive_cell" >
   <crystal>
    <varray name="basis" >
     <v>       2.71726860      -2.71726860       0.00000000 </v>
     <v>       2.71726860       0.00000000       2.71726860 </v>
     <v>       0.00000000      -2.71726860       2.71726860 </v>
    </varray>
    <i name="volume">     40.12617000 </i>
    <varray name="rec_basis" >
     <v>       0.18400831      -0.18400831      -0.18400831 </v>
     <v>       0.18400831       0.18400831       0.18400831 </v>
     <v>      -0.18400831      -0.18400831       0.18400831 </v>
    </varray>
   </crystal>
   <varray name="positions" >
    <v>       0.50000000       0.50000000       0.50000000 </v>
    <v>       0.25000000       0.25000000       0.25000000 </v>
   </varray>
  </structure>
  <varray name="primitive_index" >
   <v type="int" >        1 </v>
   <v type="int" >        2 </v>
  </varray>
 </primitive_cell>
 <kpoints>
  <generation param="Gamma">
   <v type="int" name="divisions">       4        4        4 </v>
   <v name="usershift">      0.00000000       0.00000000       0.00000000 </v>
   <v name="genvec1">      0.25000000       0.00000000       0.00000000 </v>
   <v name="genvec2">      0.00000000       0.25000000       0.00000000 </v>
   <v name="genvec3">      0.00000000       0.00000000       0.25000000 </v>
   <v name="shift">      0.00000000       0.00000000       0.00000000 </v>
  </generation>
  <varray name="kpointlist" >
   <v>       0.00000000       0.00000000       0.00000000 </v>
   <v>       0.25000000       0.00000000       0.00000000 </v>
   <v>       0.50000000       0.00000000       0.00000000 </v>
   <v>       0.25000000       0.25000000       0.00000000 </v>
   <v>       0.50000000       0.25000000       0.00000000 </v>
   <v>       0.50000000       0.50000000       0.00000000 </v>
   <v>       0.25000000       0.25000000       0.25000000 </v>
   <v>       0.50000000       0.25000000       0.25000000 </v>
   <v>       0.50000000       0.50000000       0.25000000 </v>
   <v>       0.50000000       0.50000000       0.50000000 </v>
  </varray>
  <varray name="weights" >
   <v>       0.01562500 </v>
   <v>       0.09375000 </v>
   <v>       0.04687500 </v>
   <v>       0.18750000 </v>
   <v>       0.18750000 </v>
   <v>       0.04687500 </v>
   <v>       0.12500000 </v>
   <v>       0.18750000 </v>
   <v>       0.09375000 </v>
   <v>       0.01562500 </v>
  </varray>
 </kpoints>
 <parameters>
  <separator name="general" >
   <i type="string" name="SYSTEM">unknown system</i>
   <i type="logical" name="LCOMPAT"> F  </i>
  </separator>
  <separator name="electronic" >
   <i type="string" name="PREC">accura</i>
   <i name="ENMAX">    318.00000000</i>
   <i name="ENAUG">    322.06900000</i>
   <i name="EDIFF">      0.00000001</i>
   <i type="int" name="IALGO">    38</i>
   <i type="int" name="IWAVPR">    11</i>
   <i type="int" name="NBANDS">    24</i>
   <i type="int" name="NBANDSLOW">    -1</i>
   <i type="int" name="NBANDSHIGH">    -1</i>
   <i name="NELECT">     32.00000000</i>
   <i type="int" name="TURBO">     0</i>
   <i type="int" name="IRESTART">     0</i>
   <i type="int" name="NREBOOT">     0</i>
   <i type="int" name="NMIN">     0</i>
   <i name="EREF">      0.00000000</i>
   <separator name="electronic smearing" >
    <i type="int" name="ISMEAR">     0</i>
    <i name="SIGMA">      0.02000000</i>
    <i name="KSPACING">      0.50000000</i>
    <i type="logical" name="KGAMMA"> T  </i>
    <i type="logical" name="KBLOWUP"> T  </i>
   </separator>
   <separator name="electronic projectors" >
    <i type="logical" name="LREAL"> F  </i>
    <v name="ROPT">      0.00000000</v>
    <i type="int" name="LMAXPAW">  -100</i>
    <i type="int" name="LMAXMIX">     2</i>
    <i type="logical" name="NLSPLINE"> F  </i>
   </separator>
   <separator name="electronic startup" >
    <i type="int" name="ISTART">     0</i>
    <i type="int" name="ICHARG">     2</i>
    <i type="int" name="INIWAV">     1</i>
   </separator>
   <separator name="electronic spin" >
    <i type="int" name="ISPIN">     1</i>
    <i type="logical" name="LNONCOLLINEAR"> F  </i>
    <v name="MAGMOM">      1.00000000      1.00000000      1.00000000      1.00000000      1.00000000      1.00000000      1.00000000      1.00000000</v>
    <i name="NUPDOWN">     -1.00000000</i>
    <i type="logical" name="LSORBIT"> F  </i>
    <v name="SAXIS">      0.00000000      0.00000000      1.00000000</v>
    <i type="logical" name="LSPIRAL"> F  </i>
    <v name="QSPIRAL">      0.00000000      0.00000000      0.00000000</v>
    <i type="logical" name="LZEROZ"> F  </i>
   </separator>
   <separator name="electronic exchange-correlation" >
    <i type="logical" name="LASPH"> F  </i>
    <i type="logical" name="LMETAGGA"> F  </i>
   </separator>
   <separator name="electronic convergence" >
    <i type="int" name="NELM">    60</i>
    <i type="int" name="NELMDL">    -5</i>
    <i type="int" name="NELMIN">     5</i>
    <i name="ENINI">    318.00000000</i>
    <separator name="electronic convergence detail" >
     <i type="logical" name="LDIAG"> T  </i>
     <i type="logical" name="LSUBROT"> F  </i>
     <i name="WEIMIN">      0.00100000</i>
     <i name="EBREAK">      0.00000000</i>
     <i name="DEPER">      0.30000000</i>
     <i type="int" name="NRMM">     4</i>
     <i name="TIME">      0.40000000</i>
    </separator>
   </separator>
   <separator name="electronic mixer" >
    <i name="AMIX">      0.40000000</i>
    <i name="BMIX">      1.00000000</i>
    <i name="AMIN">      0.10000000</i>
    <i name="AMIX_MAG">      1.60000000</i>
    <i name="BMIX_MAG">      1.00000000</i>
    <separator name="electronic mixer details" >
     <i type="int" name="IMIX">     4</i>
     <i type="logical" name="MIXFIRST"> F  </i>
     <i type="int" name="MAXMIX">   -45</i>
     <i name="WC">    100.00000000</i>
     <i type="int" name="INIMIX">     1</i>
     <i type="int" name="MIXPRE">     1</i>
     <i type="int" name="MREMOVE">     5</i>
    </separator>
   </separator>
   <separator name="electronic dipolcorrection" >
    <i type="logical" name="LDIPOL"> F  </i>
    <i type="logical" name="LMONO"> F  </i>
    <i type="int" name="IDIPOL">     0</i>
    <i name="EPSILON">      1.00000000</i>
    <v name="DIPOL">   -100.00000000   -100.00000000   -100.00000000</v>
    <i name="EFIELD">      0.00000000</i>
   </separator>
  </separator>
  <separator name="grids" >
   <i type="int" name="NGX">    32</i>
   <i type="int" name="NGY">    32</i>
   <i type="int" name="NGZ">    32</i>
   <i type="int" name="NGXF">    64</i>
   <i type="int" name="NGYF">    64</i>
   <i type="int" name="NGZF">    64</i>
   <i type="logical" name="ADDGRID"> T  </i>
  </separator>
  <separator name="ionic" >
   <i type="int" name="NSW">   500</i>
   <i type="int" name="IBRION">     2</i>
   <i type="int" name="MDALGO">     0</i>
   <i type="int" name="ISIF">     3</i>
   <i name="PSTRESS">      0.00000000</i>
   <i name="EDIFFG">     -0.00000100</i>
   <i type="int" name="NFREE">     1</i>
   <i name="POTIM">      0.50000000</i>
   <i name="SMASS">     -3.00000000</i>
   <i name="SCALEE">      1.00000000</i>
  </separator>
  <separator name="ionic md" >
   <i name="TEBEG">      0.00010000</i>
   <i name="TEEND">      0.00010000</i>
   <i type="int" name="NBLOCK">     1</i>
   <i type="int" name="KBLOCK">   500</i>
   <i type="int" name="NPACO">   256</i>
   <i name="APACO">     10.00000000</i>
  </separator>
  <separator name="symmetry" >
   <i type="int" name="ISYM">     2</i>
   <i name="SYMPREC">      0.00001000</i>
  </separator>
  <separator name="dos" >
   <i type="int" name="LORBIT">     0</i>
   <v name="RWIGS">     -1.00000000</v>
   <i type="int" name="NEDOS">   301</i>
   <i name="EMIN">     10.00000000</i>
   <i name="EMAX">    -10.00000000</i>
   <i name="EFERMI">      0.00000000</i>
  </separator>
  <separator name="writing" >
   <i type="int" name="NWRITE">     2</i>
   <i type="logical" name="LWAVE"> F  </i>
   <i type="logical" name="LDOWNSAMPLE"> F  </i>
   <i type="logical" name="LCHARG"> F  </i>
   <i type="logical" name="LPARD"> F  </i>
   <i type="logical" name="LVTOT"> F  </i>
   <i type="logical" name="LVHAR"> F  </i>
   <i type="logical" name="LELF"> F  </i>
   <i type="logical" name="LOPTICS"> F  </i>
   <v name="STM">      0.00000000      0.00000000      0.00000000      0.00000000      0.00000000      0.00000000      0.00000000</v>
  </separator>
  <separator name="performance" >
   <i type="int" name="NPAR">     8</i>
   <i type="int" name="NSIM">     4</i>
   <i type="int" name="NBLK">    -1</i>
   <i type="logical" name="LPLANE"> T  </i>
   <i type="logical" name="LSCALAPACK"> T  </i>
   <i type="logical" name="LSCAAWARE"> F  </i>
   <i type="logical" name="LSCALU"> F  </i>
   <i type="logical" name="LASYNC"> F  </i>
   <i type="logical" name="LORBITALREAL"> F  </i>
  </separator>
  <separator name="miscellaneous" >
   <i type="int" name="IDIOT">     3</i>
   <i type="int" name="PHON_NSTRUCT">    -1</i>
   <i type="logical" name="LMUSIC"> F  </i>
   <v name="POMASS">     28.08500000</v>
   <v name="DARWINR">      0.00000000</v>
   <v name="DARWINV">      1.00000000</v>
   <i type="logical" name="LCORR"> T  </i>
  </separator>
  <i type="logical" name="GGA_COMPAT"> T  </i>
  <i type="logical" name="LBERRY"> F  </i>
  <i type="int" name="ICORELEVEL">     0</i>
  <i type="logical" name="LDAU"> F  </i>
  <i type="int" name="I_CONSTRAINED_M">     0</i>
  <separator name="electronic exchange-correlation" >
   <i type="string" name="GGA">PS</i>
   <i type="int" name="VOSKOWN">     0</i>
   <i type="logical" name="LHFCALC"> F  </i>
   <i type="string" name="PRECFOCK"></i>
   <i type="logical" name="LSYMGRAD"> F  </i>
   <i type="logical" name="LHFONE"> F  </i>
   <i type="logical" name="LRHFCALC"> F  </i>
   <i type="logical" name="LTHOMAS"> F  </i>
   <i type="logical" name="LMODELHF"> F  </i>
   <i type="logical" name="LFOCKACE"> F  </i>
   <i name="ENCUT4O">     -1.00000000</i>
   <i type="int" name="EXXOEP">     0</i>
   <i type="int" name="FOURORBIT">     0</i>
   <i name="AEXX">      0.00000000</i>
   <i name="HFALPHA">      0.00000000</i>
   <i name="MCALPHA">      0.00000000</i>
   <i name="ALDAX">      1.00000000</i>
   <i name="AGGAX">      1.00000000</i>
   <i name="ALDAC">      1.00000000</i>
   <i name="AGGAC">      1.00000000</i>
   <i type="int" name="NKREDX">     1</i>
   <i type="int" name="NKREDY">     1</i>
   <i type="int" name="NKREDZ">     1</i>
   <i type="logical" name="SHIFTRED"> F  </i>
   <i type="logical" name="ODDONLY"> F  </i>
   <i type="logical" name="EVENONLY"> F  </i>
   <i type="int" name="LMAXFOCK">     0</i>
   <i type="int" name="NMAXFOCKAE">     0</i>
   <i type="logical" name="LFOCKAEDFT"> F  </i>
   <i name="HFSCREEN">      0.00000000</i>
   <i name="HFSCREENC">      0.00000000</i>
   <i type="int" name="NBANDSGWLOW">     0</i>
  </separator>
  <separator name="vdW DFT" >
   <i type="logical" name="LUSE_VDW"> F  </i>
   <i name="Zab_VDW">     -0.84910000</i>
   <i name="PARAM1">      0.12340000</i>
   <i name="PARAM2">      1.00000000</i>
   <i name="PARAM3">      0.00000000</i>
  </separator>
  <separator name="model GW" >
   <i type="int" name="MODEL_GW">     0</i>
   <i name="MODEL_EPS0">     12.03785100</i>
   <i name="MODEL_ALPHA">      1.00000000</i>
  </separator>
  <separator name="linear response parameters" >
   <i type="logical" name="LEPSILON"> F  </i>
   <i type="logical" name="LRPA"> F  </i>
   <i type="logical" name="LNABLA"> F  </i>
   <i type="logical" name="LVEL"> F  </i>
   <i name="CSHIFT">      0.10000000</i>
   <i name="OMEGAMAX">     -1.00000000</i>
   <i name="DEG_THRESHOLD">      0.00200000</i>
   <i name="RTIME">     -0.10000000</i>
   <i name="WPLASMAI">      0.00000000</i>
   <v name="DFIELD">      0.00000000      0.00000000      0.00000000</v>
   <v name="WPLASMA">      0.00000000      0.00000000      0.00000000      0.00000000      0.00000000      0.00000000      0.00000000      0.00000000      0.00000000</v>
  </separator>
  <separator name="orbital magnetization" >
   <i type="logical" name="NUCIND"> F  </i>
   <v name="MAGPOS">      0.00000000      0.00000000      0.00000000</v>
   <i type="logical" name="LNICSALL"> T  </i>
   <i type="logical" name="ORBITALMAG"> F  </i>
   <i type="logical" name="LMAGBLOCH"> F  </i>
   <i type="logical" name="LCHIMAG"> F  </i>
   <i type="logical" name="LGAUGE"> T  </i>
   <i type="int" name="MAGATOM">     0</i>
   <v name="MAGDIPOL">      0.00000000      0.00000000      0.00000000</v>
   <v name="AVECCONST">      0.00000000      0.00000000      0.00000000</v>
  </separator>
  <separator name="response functions" >
   <i type="logical" name="LFINITE_TEMPERATURE"> F  </i>
   <i type="logical" name="LADDER"> F  </i>
   <i type="logical" name="LRPAFORCE"> F  </i>
   <i type="logical" name="LFXC"> F  </i>
   <i type="logical" name="LHARTREE"> T  </i>
   <i type="int" name="IBSE">     0</i>
   <v type="int" name="KPOINT">    -1     0     0     0</v>
   <i type="logical" name="LTCTC"> F  </i>
   <i type="logical" name="LTCTE"> F  </i>
   <i type="logical" name="LTETE"> F  </i>
   <i type="logical" name="LTRIPLET"> F  </i>
   <i type="logical" name="LFXCEPS"> F  </i>
   <i type="logical" name="LFXHEG"> F  </i>
   <i type="int" name="NATURALO">     2</i>
   <i type="logical" name="LHOLEGF"> F  </i>
   <i type="logical" name="L2ORDER"> F  </i>
   <i type="logical" name="LDMP1"> F  </i>
   <i type="logical" name="LMP2LT"> F  </i>
   <i type="logical" name="LSMP2LT"> F  </i>
   <i type="logical" name="LGWLF"> F  </i>
   <i name="ENCUTGW">     -2.00000000</i>
   <i name="ENCUTGWSOFT">     -2.00000000</i>
   <i name="ENCUTLF">     -1.00000000</i>
   <i type="logical" name="LESF_SPLINES"> F  </i>
   <i type="int" name="LMAXMP2">    -1</i>
   <i name="SCISSOR">      0.00000000</i>
   <i type="int" name="NOMEGA">     0</i>
   <i type="int" name="NOMEGAR">     0</i>
   <i type="int" name="NBANDSGW">    -1</i>
   <i type="int" name="NBANDSO">    -1</i>
   <i type="int" name="NBANDSV">    -1</i>
   <i type="int" name="NELMGW">     1</i>
   <i type="int" name="NELMHF">     1</i>
   <i type="int" name="DIM">     3</i>
   <i type="int" name="IESPILON">     4</i>
   <i type="int" name="ANTIRES">     0</i>
   <i name="OMEGAMAX">    -30.00000000</i>
   <i name="OMEGAMIN">    -30.00000000</i>
   <i name="OMEGATL">   -200.00000000</i>
   <i type="int" name="OMEGAGRID">     0</i>
   <i name="CSHIFT">     -0.10000000</i>
   <i type="logical" name="LSELFENERGY"> F  </i>
   <i type="logical" name="LSPECTRAL"> F  </i>
   <i type="logical" name="LSPECTRALGW"> F  </i>
   <i type="logical" name="LSINGLES"> F  </i>
   <i type="logical" name="LFERMIGW"> F  </i>
   <i type="logical" name="ODDONLYGW"> F  </i>
   <i type="logical" name="EVENONLYGW"> F  </i>
   <i type="int" name="NKREDLFX">     1</i>
   <i type="int" name="NKREDLFY">     1</i>
   <i type="int" name="NKREDLFZ">     1</i>
   <i type="int" name="MAXMEM">  2800</i>
   <i type="int" name="TELESCOPE">     0</i>
   <i type="int" name="NTAUPAR">    -1</i>
   <i type="int" name="NOMEGAPAR">    -1</i>
   <i name="DAMP_NEWTON">      0.80000001</i>
   <i name="LAMBDA">      1.00000000</i>
  </separator>
  <separator name="External order field" >
   <i name="OFIELD_KAPPA">      0.00000000</i>
   <v name="OFIELD_K">      0.00000000      0.00000000      0.00000000</v>
   <i name="OFIELD_Q6_NEAR">      0.00000000</i>
   <i name="OFIELD_Q6_FAR">      0.00000000</i>
   <i name="OFIELD_A">      0.00000000</i>
  </separator>
  <separator name="optional k-points parameters" >
   <i type="int" name="KPOINTS_OPT_MODE">     1</i>
   <i type="logical" name="LKPOINTS_OPT"> F  </i>
  </separator>
 </parameters>
 <atominfo>
  <atoms>       8 </atoms>
  <types>       1 </types>
  <array name="atoms" >
   <dimension dim="1">ion</dimension>
   <field type="string">element</field>
   <field type="int">atomtype</field>
   <set>
    <rc><c>Si</c><c>   1</c></rc>
    <rc><c>Si</c><c>   1</c></rc>
    <rc><c>Si</c><c>   1</c></rc>
    <rc><c>Si</c><c>   1</c></rc>
    <rc><c>Si</c><c>   1</c></rc>
    <rc><c>Si</c><c>   1</c></rc>
    <rc><c>Si</c><c>   1</c></rc>
    <rc><c>Si</c><c>   1</c></rc>
   </set>
  </array>
  <array name="atomtypes" >
   <dimension dim="1">type</dimension>
   <field type="int">atomspertype</field>
   <field type="string">element</field>
   <field>mass</field>
   <field>valence</field>
   <field type="string">pseudopotential</field>
   <set>
    <rc><c>   8</c><c>Si</c><c>     28.08500000</c><c>      4.00000000</c><c>  PAW_PBE Si 05Jan2001                  </c></rc>
   </set>
  </array>
 </atominfo>
 <structure name="initialpos" >
  <crystal>
   <varray name="basis" >
    <v>       5.43453721       0.00000000       0.00000000 </v>
    <v>       0.00000000       5.43453721       0.00000000 </v>
    <v>       0.00000000       0.00000000       5.43453721 </v>
   </varray>
   <i name="volume">    160.50467999 </i>
   <varray name="rec_basis" >
    <v>       0.18400831       0.00000000       0.00000000 </v>
    <v>       0.00000000       0.18400831       0.00000000 </v>
    <v>       0.00000000       0.00000000       0.18400831 </v>
   </varray>
  </crystal>
  <varray name="positions" >
   <v>       0.50000000       0.00000000       0.00000000 </v>
   <v>       0.25000000       0.25000000       0.75000000 </v>
   <v>       0.50000000       0.50000000       0.50000000 </v>
   <v>       0.25000000       0.75000000       0.25000000 </v>
   <v>       0.00000000       0.00000000       0.50000000 </v>
   <v>       0.75000000       0.25000000       0.25000000 </v>
   <v>       0.00000000       0.50000000       0.00000000 </v>
   <v>       0.75000000       0.75000000       0.75000000 </v>
  </varray>
 </structure>
 <calculation>
  <scstep>
   <time name="dav">    0.04    0.04</time>
   <time name="total">    0.05    0.05</time>
   <energy>
    <i name="alphaZ">     13.42291310 </i>
    <i name="ewald">   -913.49083609 </i>
    <i name="hartreedc">    -44.15487505 </i>
    <i name="XCdc">    -69.85643399 </i>
    <i name="pawpsdc">    699.82828177 </i>
    <i name="pawaedc">   -561.52230517 </i>
    <i name="eentropy">     -0.00236852 </i>
    <i name="bandstr">     97.91920221 </i>
    <i name="atom">    820.59587802 </i>
    <i name="e_fr_energy">     42.73945628 </i>
    <i name="e_wo_entrp">     42.74182480 </i>
    <i name="e_0_energy">     42.74064054 </i>
   </energy>
  </scstep>
  <scstep>
   <time name="dav">    0.05    0.05</time>
   <time name="total">    0.05    0.05</time>
   <energy>
    <i name="e_fr_energy">    -43.20905301 </i>
    <i name="e_wo_entrp">    -43.20905301 </i>
    <i name="e_0_energy">    -43.20905301 </i>
   </energy>
  </scstep>
  <scstep>
   <time name="dav">    0.04    0.05</time>
   <time name="total">    0.04    0.05</time>
   <energy>
    <i name="e_fr_energy">    -46.77618919 </i>
    <i name="e_wo_entrp">    -46.77618919 </i>
    <i name="e_0_energy">    -46.77618919 </i>
   </energy>
  </scstep>
  <scstep>
   <time name="dav">    0.04    0.04</time>
   <time name="total">    0.04    0.04</time>
   <energy>
    <i name="e_fr_energy">    -46.82914934 </i>
    <i name="e_wo_entrp">    -46.82914934 </i>
    <i name="e_0_energy">    -46.82914934 </i>
   </energy>
  </scstep>
  <scstep>
   <time name="dav">    0.04    0.04</time>
   <time name="total">    0.05    0.05</time>
   <energy>
    <i name="e_fr_energy">    -46.83036336 </i>
    <i name="e_wo_entrp">    -46.83036336 </i>
    <i name="e_0_energy">    -46.83036336 </i>
   </energy>
  </scstep>
  <scstep>
   <time name="dav">    0.04    0.04</time>
   <time name="total">    0.05    0.05</time>
   <energy>
    <i name="e_fr_energy">    -46.21522820 </i>
    <i name="e_wo_entrp">    -46.21522820 </i>
    <i name="e_0_energy">    -46.21522820 </i>
   </energy>
  </scstep>
  <scstep>
   <time name="dav">    0.04    0.04</time>
   <time name="total">    0.05    0.05</time>
   <energy>
    <i name="e_fr_energy">    -45.93514249 </i>
    <i name="e_wo_entrp">    -45.93514249 </i>
    <i name="e_0_energy">    -45.93514249 </i>
   </energy>
  </scstep>
  <scstep>
   <time name="dav">    0.04    0.04</time>
   <time name="total">    0.05    0.05</time>
   <energy>
    <i name="e_fr_energy">    -45.93722366 </i>
    <i name="e_wo_entrp">    -45.93722366 </i>
    <i name="e_0_energy">    -45.93722366 </i>
   </energy>
  </scstep>
  <scstep>
   <time name="dav">    0.04    0.04</time>
   <time name="total">    0.05    0.05</time>
   <energy>
    <i name="e_fr_energy">    -45.93743309 </i>
    <i name="e_wo_entrp">    -45.93743309 </i>
    <i name="e_0_energy">    -45.93743309 </i>
   </energy>
  </scstep>
  <scstep>
   <time name="dav">    0.04    0.04</time>
   <time name="total">    0.05    0.05</time>
   <energy>
    <i name="e_fr_energy">    -45.93752905 </i>
    <i name="e_wo_entrp">    -45.93752905 </i>
    <i name="e_0_energy">    -45.93752905 </i>
   </energy>
  </scstep>
  <scstep>
   <time name="dav">    0.04    0.04</time>
   <time name="total">    0.05    0.05</time>
   <energy>
    <i name="e_fr_energy">    -45.93753029 </i>
    <i name="e_wo_entrp">    -45.93753029 </i>
    <i name="e_0_energy">    -45.93753029 </i>
   </energy>
  </scstep>
  <scstep>
   <time name="dav">    0.04    0.04</time>
   <time name="total">    0.05    0.06</time>
   <energy>
    <i name="e_fr_energy">    -45.93753045 </i>
    <i name="e_wo_entrp">    -45.93753045 </i>
    <i name="e_0_energy">    -45.93753045 </i>
   </energy>
  </scstep>
  <scstep>
   <time name="dav">    0.04    0.04</time>
   <time name="total">    0.05    0.05</time>
   <energy>
    <i name="e_fr_energy">    -45.93753019 </i>
    <i name="e_wo_entrp">    -45.93753019 </i>
    <i name="e_0_energy">    -45.93753019 </i>
   </energy>
  </scstep>
  <scstep>
   <time name="dav">    0.03    0.03</time>
   <time name="total">    0.05    0.05</time>
   <energy>
    <i name="e_fr_energy">    -45.93753020 </i>
    <i name="e_wo_entrp">    -45.93753020 </i>
    <i name="e_0_energy">    -45.93753020 </i>
   </energy>
  </scstep>
  <scstep>
   <time name="dav">    0.03    0.03</time>
   <time name="total">    0.04    0.04</time>
   <energy>
    <i name="e_fr_energy">    -45.93753021 </i>
    <i name="e_wo_entrp">    -45.93753021 </i>
    <i name="e_0_energy">    -45.93753021 </i>
   </energy>
  </scstep>
  <scstep>
   <time name="dav">    0.03    0.03</time>
   <time name="total">    0.03    0.03</time>
   <energy>
    <i name="alphaZ">     13.42291310 </i>
    <i name="ewald">   -913.49083609 </i>
    <i name="hartreedc">    -58.59698989 </i>
    <i name="XCdc">    -67.41889812 </i>
    <i name="pawpsdc">   3559.48258721 </i>
    <i name="pawaedc">  -3422.03598411 </i>
    <i name="eentropy">     -0.00000000 </i>
    <i name="bandstr">     22.10379966 </i>
    <i name="atom">    820.59587802 </i>
    <i name="e_fr_energy">    -45.93753021 </i>
    <i name="e_wo_entrp">    -45.93753021 </i>
    <i name="e_0_energy">    -45.93753021 </i>
   </energy>
  </scstep>
  <structure>
   <crystal>
    <varray name="basis" >
     <v>       5.43453721       0.00000000       0.00000000 </v>
     <v>       0.00000000       5.43453721       0.00000000 </v>
     <v>       0.00000000       0.00000000       5.43453721 </v>
    </varray>
    <i name="volume">    160.50467999 </i>
    <varray name="rec_basis" >
     <v>       0.18400831       0.00000000       0.00000000 </v>
     <v>       0.00000000       0.18400831       0.00000000 </v>
     <v>       0.00000000       0.00000000       0.18400831 </v>
    </varray>
   </crystal>
   <varray name="positions" >
    <v>       0.50000000       0.00000000       0.00000000 </v>
    <v>       0.25000000       0.25000000       0.75000000 </v>
    <v>       0.50000000       0.50000000       0.50000000 </v>
    <v>       0.25000000       0.75000000       0.25000000 </v>
    <v>       0.00000000       0.00000000       0.50000000 </v>
    <v>       0.75000000       0.25000000       0.25000000 </v>
    <v>       0.00000000       0.50000000       0.00000000 </v>
    <v>       0.75000000       0.75000000       0.75000000 </v>
   </varray>
  </structure>
  <varray name="forces" >
   <v>      -0.00000000       0.00000000       0.00000000 </v>
   <v>      -0.00000000      -0.00000000      -0.00000000 </v>
   <v>       0.00000000       0.00000000       0.00000000 </v>
   <v>      -0.00000000      -0.00000000      -0.00000000 </v>
   <v>       0.00000000      -0.00000000       0.00000000 </v>
   <v>      -0.00000000       0.00000000      -0.00000000 </v>
   <v>       0.00000000      -0.00000000       0.00000000 </v>
   <v>      -0.00000000       0.00000000      -0.00000000 </v>
  </varray>
  <varray name="stress" >
   <v>       0.00016253      -0.00000000       0.00000000 </v>
   <v>      -0.00000000       0.00016253      -0.00000000 </v>
   <v>      -0.00000000      -0.00000000       0.00016253 </v>
  </varray>
  <energy>
   <i name="e_fr_energy">    -45.93753021 </i>
   <i name="e_wo_entrp">    -45.93753021 </i>
   <i name="e_0_energy">    -45.93753021 </i>
  </energy>
  <time name="totalsc">    0.87    0.88</time>
 </calculation>
 <calculation>
  <scstep>
   <time name="dav">    0.03    0.03</time>
   <time name="total">    0.04    0.04</time>
   <energy>
    <i name="alphaZ">     13.42290914 </i>
    <i name="ewald">   -913.49074640 </i>
    <i name="hartreedc">    -58.59699982 </i>
    <i name="XCdc">    -67.41890183 </i>
    <i name="pawpsdc">   3559.48217964 </i>
    <i name="pawaedc">  -3422.03557702 </i>
    <i name="eentropy">     -0.00000000 </i>
    <i name="bandstr">     22.10372805 </i>
    <i name="atom">    820.59587802 </i>
    <i name="e_fr_energy">    -45.93753021 </i>
    <i name="e_wo_entrp">    -45.93753021 </i>
    <i name="e_0_energy">    -45.93753021 </i>
   </energy>
  </scstep>
  <scstep>
   <time name="dav">    0.03    0.03</time>
   <time name="total">    0.04    0.04</time>
   <energy>
    <i name="e_fr_energy">    -45.93753021 </i>
    <i name="e_wo_entrp">    -45.93753021 </i>
    <i name="e_0_energy">    -45.93753021 </i>
   </energy>
  </scstep>
  <scstep>
   <time name="dav">    0.03    0.03</time>
   <time name="total">    0.04    0.04</time>
   <energy>
    <i name="e_fr_energy">    -45.93753021 </i>
    <i name="e_wo_entrp">    -45.93753021 </i>
    <i name="e_0_energy">    -45.93753021 </i>
   </energy>
  </scstep>
  <scstep>
   <time name="dav">    0.03    0.03</time>
   <time name="total">    0.04    0.04</time>
   <energy>
    <i name="e_fr_energy">    -45.93753021 </i>
    <i name="e_wo_entrp">    -45.93753021 </i>
    <i name="e_0_energy">    -45.93753021 </i>
   </energy>
  </scstep>
  <scstep>
   <time name="dav">    0.03    0.03</time>
   <time name="total">    0.03    0.03</time>
   <energy>
    <i name="alphaZ">     13.42290914 </i>
    <i name="ewald">   -913.49074640 </i>
    <i name="hartreedc">    -58.59701877 </i>
    <i name="XCdc">    -67.41890159 </i>
    <i name="pawpsdc">   3559.48028519 </i>
    <i name="pawaedc">  -3422.03368181 </i>
    <i name="eentropy">     -0.00000000 </i>
    <i name="bandstr">     22.10374600 </i>
    <i name="atom">    820.59587802 </i>
    <i name="e_fr_energy">    -45.93753021 </i>
    <i name="e_wo_entrp">    -45.93753021 </i>
    <i name="e_0_energy">    -45.93753021 </i>
   </energy>
  </scstep>
  <structure>
   <crystal>
    <varray name="basis" >
     <v>       5.43453774      -0.00000000       0.00000000 </v>
     <v>      -0.00000000       5.43453774      -0.00000000 </v>
     <v>      -0.00000000      -0.00000000       5.43453774 </v>
    </varray>
    <i name="volume">    160.50472727 </i>
    <varray name="rec_basis" >
     <v>       0.18400829       0.00000000       0.00000000 </v>
     <v>       0.00000000       0.18400829       0.00000000 </v>
     <v>      -0.00000000       0.00000000       0.18400829 </v>
    </varray>
   </crystal>
   <varray name="positions" >
    <v>       0.50000000       0.00000000       0.00000000 </v>
    <v>       0.25000000       0.25000000       0.75000000 </v>
    <v>       0.50000000       0.50000000       0.50000000 </v>
    <v>       0.25000000       0.75000000       0.25000000 </v>
    <v>       0.00000000      -0.00000000       0.50000000 </v>
    <v>       0.75000000       0.25000000       0.25000000 </v>
    <v>       0.00000000       0.50000000       0.00000000 </v>
    <v>       0.75000000       0.75000000       0.75000000 </v>
   </varray>
  </structure>
  <varray name="forces" >
   <v>      -0.00000000      -0.00000000       0.00000000 </v>
   <v>       0.00000000       0.00000000      -0.00000000 </v>
   <v>       0.00000000       0.00000000       0.00000000 </v>
   <v>      -0.00000000      -0.00000000      -0.00000000 </v>
   <v>       0.00000000       0.00000000       0.00000000 </v>
   <v>      -0.00000000      -0.00000000      -0.00000000 </v>
   <v>       0.00000000      -0.00000000      -0.00000000 </v>
   <v>      -0.00000000       0.00000000       0.00000000 </v>
  </varray>
  <varray name="stress" >
   <v>      -0.00024416       0.00000000       0.00000000 </v>
   <v>      -0.00000000      -0.00024416       0.00000000 </v>
   <v>       0.00000000      -0.00000000      -0.00024416 </v>
  </varray>
  <energy>
   <i name="e_fr_energy">    -45.93753021 </i>
   <i name="e_wo_entrp">    -45.93753021 </i>
   <i name="e_0_energy">    -45.93753021 </i>
  </energy>
  <time name="totalsc">    0.28    0.30</time>
 </calculation>
 <calculation>
  <scstep>
   <time name="dav">    0.03    0.03</time>
   <time name="total">    0.04    0.04</time>
   <energy>
    <i name="alphaZ">     13.42291152 </i>
    <i name="ewald">   -913.49080025 </i>
    <i name="hartreedc">    -58.59702203 </i>
    <i name="XCdc">    -67.41889841 </i>
    <i name="pawpsdc">   3559.48034649 </i>
    <i name="pawaedc">  -3422.03374309 </i>
    <i name="eentropy">     -0.00000000 </i>
    <i name="bandstr">     22.10379755 </i>
    <i name="atom">    820.59587802 </i>
    <i name="e_fr_energy">    -45.93753021 </i>
    <i name="e_wo_entrp">    -45.93753021 </i>
    <i name="e_0_energy">    -45.93753021 </i>
   </energy>
  </scstep>
  <scstep>
   <time name="dav">    0.03    0.03</time>
   <time name="total">    0.04    0.04</time>
   <energy>
    <i name="e_fr_energy">    -45.93753021 </i>
    <i name="e_wo_entrp">    -45.93753021 </i>
    <i name="e_0_energy">    -45.93753021 </i>
   </energy>
  </scstep>
  <scstep>
   <time name="dav">    0.03    0.03</time>
   <time name="total">    0.04    0.04</time>
   <energy>
    <i name="e_fr_energy">    -45.93753021 </i>
    <i name="e_wo_entrp">    -45.93753021 </i>
    <i name="e_0_energy">    -45.93753021 </i>
   </energy>
  </scstep>
  <scstep>
   <time name="dav">    0.03    0.03</time>
   <time name="total">    0.04    0.04</time>
   <energy>
    <i name="e_fr_energy">    -45.93753021 </i>
    <i name="e_wo_entrp">    -45.93753021 </i>
    <i name="e_0_energy">    -45.93753021 </i>
   </energy>
  </scstep>
  <scstep>
   <time name="dav">    0.03    0.03</time>
   <time name="total">    0.03    0.03</time>
   <energy>
    <i name="alphaZ">     13.42291152 </i>
    <i name="ewald">   -913.49080025 </i>
    <i name="hartreedc">    -58.59701067 </i>
    <i name="XCdc">    -67.41889857 </i>
    <i name="pawpsdc">   3559.48156273 </i>
    <i name="pawaedc">  -3422.03495989 </i>
    <i name="eentropy">     -0.00000000 </i>
    <i name="bandstr">     22.10378689 </i>
    <i name="atom">    820.59587802 </i>
    <i name="e_fr_energy">    -45.93753021 </i>
    <i name="e_wo_entrp">    -45.93753021 </i>
    <i name="e_0_energy">    -45.93753021 </i>
   </energy>
  </scstep>
  <structure>
   <crystal>
    <varray name="basis" >
     <v>       5.43453742      -0.00000000       0.00000000 </v>
     <v>      -0.00000000       5.43453742      -0.00000000 </v>
     <v>      -0.00000000      -0.00000000       5.43453742 </v>
    </varray>
    <i name="volume">    160.50469889 </i>
    <varray name="rec_basis" >
     <v>       0.18400830       0.00000000       0.00000000 </v>
     <v>       0.00000000       0.18400830       0.00000000 </v>
     <v>      -0.00000000       0.00000000       0.18400830 </v>
    </varray>
   </crystal>
   <varray name="positions" >
    <v>       0.50000000       0.00000000       0.00000000 </v>
    <v>       0.25000000       0.25000000       0.75000000 </v>
    <v>       0.50000000       0.50000000       0.50000000 </v>
    <v>       0.25000000       0.75000000       0.25000000 </v>
    <v>       0.00000000      -0.00000000       0.50000000 </v>
    <v>       0.75000000       0.25000000       0.25000000 </v>
    <v>       0.00000000       0.50000000       0.00000000 </v>
    <v>       0.75000000       0.75000000       0.75000000 </v>
   </varray>
  </structure>
  <varray name="forces" >
   <v>       0.00000000      -0.00000000      -0.00000000 </v>
   <v>      -0.00000000       0.00000000       0.00000000 </v>
   <v>      -0.00000000       0.00000000      -0.00000000 </v>
   <v>       0.00000000      -0.00000000       0.00000000 </v>
   <v>      -0.00000000      -0.00000000      -0.00000000 </v>
   <v>       0.00000000      -0.00000000       0.00000000 </v>
   <v>      -0.00000000      -0.00000000      -0.00000000 </v>
   <v>       0.00000000       0.00000000       0.00000000 </v>
  </varray>
  <varray name="stress" >
   <v>      -0.00007778       0.00000000       0.00000000 </v>
   <v>      -0.00000000      -0.00007778       0.00000000 </v>
   <v>       0.00000000      -0.00000000      -0.00007778 </v>
  </varray>
  <energy>
   <i name="e_fr_energy">    -45.93753021 </i>
   <i name="e_wo_entrp">    -45.93753021 </i>
   <i name="e_0_energy">    -45.93753021 </i>
  </energy>
  <time name="totalsc">    0.27    0.28</time>
  <eigenvalues>
   <array>
    <dimension dim="1">band</dimension>
    <dimension dim="2">kpoint</dimension>
    <dimension dim="3">spin</dimension>
    <field>eigene</field>
    <field>occ</field>
    <set>
     <set comment="spin 1">
      <set comment="kpoint 1">
       <r>   -6.2054    1.0000 </r>
       <r>   -2.0518    1.0000 </r>
       <r>   -2.0518    1.0000 </r>
       <r>   -2.0518    1.0000 </r>
       <r>   -2.0518    1.0000 </r>
       <r>   -2.0518    1.0000 </r>
       <r>   -2.0518    1.0000 </r>
       <r>    2.9019    1.0000 </r>
       <r>    2.9019    1.0000 </r>
       <r>    2.9019    1.0000 </r>
       <r>    2.9019    1.0000 </r>
       <r>    2.9019    1.0000 </r>
       <r>    2.9019    1.0000 </r>
       <r>    5.7721    1.0000 </r>
       <r>    5.7721    1.0000 </r>
       <r>    5.7721    1.0000 </r>
       <r>    6.3659    0.0000 </r>
       <r>    6.3659    0.0000 </r>
       <r>    6.3659    0.0000 </r>
       <r>    6.3659    0.0000 </r>
       <r>    6.3659    0.0000 </r>
       <r>    6.3659    0.0000 </r>
       <r>    8.2891    0.0000 </r>
       <r>    8.2891    0.0000 </r>
      </set>
      <set comment="kpoint 2">
       <r>   -5.9319    1.0000 </r>
       <r>   -3.8056    1.0000 </r>
       <r>   -1.9713    1.0000 </r>
       <r>   -1.9713    1.0000 </r>
       <r>   -1.9713    1.0000 </r>
       <r>   -1.9713    1.0000 </r>
       <r>    0.0234    1.0000 </r>
       <r>    2.3182    1.0000 </r>
       <r>    2.3182    1.0000 </r>
       <r>    2.3182    1.0000 </r>
       <r>    2.3182    1.0000 </r>
       <r>    3.1483    1.0000 </r>
       <r>    3.1483    1.0000 </r>
       <r>    4.4332    1.0000 </r>
       <r>    4.9554    1.0000 </r>
       <r>    4.9554    1.0000 </r>
       <r>    6.2799    0.0000 </r>
       <r>    7.1941    0.0000 </r>
       <r>    7.6461    0.0000 </r>
       <r>    7.6461    0.0000 </r>
       <r>    7.6461    0.0000 </r>
       <r>    7.6461    0.0000 </r>
       <r>    7.7143    0.0000 </r>
       <r>    9.4390    0.0000 </r>
      </set>
      <set comment="kpoint 3">
       <r>   -5.1212    1.0000 </r>
       <r>   -5.1212    1.0000 </r>
       <r>   -1.8826    1.0000 </r>
       <r>   -1.8826    1.0000 </r>
       <r>   -1.8826    1.0000 </r>
       <r>   -1.8826    1.0000 </r>
       <r>    1.8713    1.0000 </r>
       <r>    1.8713    1.0000 </r>
       <r>    1.8713    1.0000 </r>
       <r>    1.8713    1.0000 </r>
       <r>    2.2516    1.0000 </r>
       <r>    2.2516    1.0000 </r>
       <r>    3.8668    1.0000 </r>
       <r>    3.8668    1.0000 </r>
       <r>    3.8668    1.0000 </r>
       <r>    3.8668    1.0000 </r>
       <r>    6.8083    0.0000 </r>
       <r>    6.8083    0.0000 </r>
       <r>    8.7981    0.0000 </r>
       <r>    8.7981    0.0000 </r>
       <r>    9.9478    0.0000 </r>
       <r>    9.9478    0.0000 </r>
       <r>    9.9478    0.0000 </r>
       <r>    9.9478    0.0000 </r>
      </set>
      <set comment="kpoint 4">
       <r>   -5.6638    1.0000 </r>
       <r>   -3.6052    1.0000 </r>
       <r>   -3.6052    1.0000 </r>
       <r>   -2.4596    1.0000 </r>
       <r>   -1.4625    1.0000 </r>
       <r>   -0.1951    1.0000 </r>
       <r>   -0.1951    1.0000 </r>
       <r>    1.4171    1.0000 </r>
       <r>    2.3723    1.0000 </r>
       <r>    2.3723    1.0000 </r>
       <r>    2.9834    1.0000 </r>
       <r>    2.9834    1.0000 </r>
       <r>    3.0769    1.0000 </r>
       <r>    3.3316    1.0000 </r>
       <r>    4.1186    1.0000 </r>
       <r>    5.4804    1.0000 </r>
       <r>    6.8660    0.0000 </r>
       <r>    7.6318    0.0000 </r>
       <r>    7.6318    0.0000 </r>
       <r>    8.3154    0.0000 </r>
       <r>    8.3154    0.0000 </r>
       <r>    8.7640    0.0000 </r>
       <r>    8.8495    0.0000 </r>
       <r>    9.0701    0.0000 </r>
      </set>
      <set comment="kpoint 5">
       <r>   -4.8726    1.0000 </r>
       <r>   -4.8726    1.0000 </r>
       <r>   -3.0763    1.0000 </r>
       <r>   -3.0763    1.0000 </r>
       <r>   -0.8028    1.0000 </r>
       <r>   -0.8028    1.0000 </r>
       <r>    1.4745    1.0000 </r>
       <r>    1.4745    1.0000 </r>
       <r>    1.4934    1.0000 </r>
       <r>    1.4934    1.0000 </r>
       <r>    3.0250    1.0000 </r>
       <r>    3.0250    1.0000 </r>
       <r>    3.1593    1.0000 </r>
       <r>    3.1593    1.0000 </r>
       <r>    4.3320    1.0000 </r>
       <r>    4.3320    1.0000 </r>
       <r>    8.1458    0.0000 </r>
       <r>    8.1458    0.0000 </r>
       <r>    8.5530    0.0000 </r>
       <r>    8.5530    0.0000 </r>
       <r>    9.6073    0.0000 </r>
       <r>    9.6073    0.0000 </r>
       <r>    9.8792    0.0000 </r>
       <r>    9.8792    0.0000 </r>
      </set>
      <set comment="kpoint 6">
       <r>   -4.1549    1.0000 </r>
       <r>   -4.1549    1.0000 </r>
       <r>   -4.1549    1.0000 </r>
       <r>   -4.1549    1.0000 </r>
       <r>    0.2821    1.0000 </r>
       <r>    0.2821    1.0000 </r>
       <r>    0.2821    1.0000 </r>
       <r>    0.2821    1.0000 </r>
       <r>    1.9734    1.0000 </r>
       <r>    1.9734    1.0000 </r>
       <r>    1.9734    1.0000 </r>
       <r>    1.9734    1.0000 </r>
       <r>    4.4372    1.0000 </r>
       <r>    4.4372    1.0000 </r>
       <r>    4.4372    1.0000 </r>
       <r>    4.4372    1.0000 </r>
       <r>    8.1381    0.0000 </r>
       <r>    8.1381    0.0000 </r>
       <r>    8.1381    0.0000 </r>
       <r>    8.1381    0.0000 </r>
       <r>   10.5146    0.0000 </r>
       <r>   10.5146    0.0000 </r>
       <r>   10.5146    0.0000 </r>
       <r>   10.5146    0.0000 </r>
      </set>
      <set comment="kpoint 7">
       <r>   -5.4036    1.0000 </r>
       <r>   -3.4777    1.0000 </r>
       <r>   -3.4777    1.0000 </r>
       <r>   -3.4777    1.0000 </r>
       <r>   -0.6244    1.0000 </r>
       <r>   -0.6244    1.0000 </r>
       <r>   -0.6244    1.0000 </r>
       <r>    1.8229    1.0000 </r>
       <r>    2.1985    1.0000 </r>
       <r>    2.1985    1.0000 </r>
       <r>    2.1985    1.0000 </r>
       <r>    3.5526    1.0000 </r>
       <r>    3.5526    1.0000 </r>
       <r>    3.5526    1.0000 </r>
       <r>    5.0078    1.0000 </r>
       <r>    5.0078    1.0000 </r>
       <r>    7.1889    0.0000 </r>
       <r>    7.1889    0.0000 </r>
       <r>    7.1889    0.0000 </r>
       <r>    7.7265    0.0000 </r>
       <r>    9.2309    0.0000 </r>
       <r>    9.2309    0.0000 </r>
       <r>   10.1316    0.0000 </r>
       <r>   10.1316    0.0000 </r>
      </set>
      <set comment="kpoint 8">
       <r>   -4.6440    1.0000 </r>
       <r>   -4.6440    1.0000 </r>
       <r>   -3.3215    1.0000 </r>
       <r>   -3.3215    1.0000 </r>
       <r>   -1.0382    1.0000 </r>
       <r>   -1.0382    1.0000 </r>
       <r>    0.4651    1.0000 </r>
       <r>    0.4651    1.0000 </r>
       <r>    2.2875    1.0000 </r>
       <r>    2.2875    1.0000 </r>
       <r>    3.5913    1.0000 </r>
       <r>    3.5913    1.0000 </r>
       <r>    3.9184    1.0000 </r>
       <r>    3.9184    1.0000 </r>
       <r>    4.1743    1.0000 </r>
       <r>    4.1743    1.0000 </r>
       <r>    7.9402    0.0000 </r>
       <r>    7.9402    0.0000 </r>
       <r>    8.7703    0.0000 </r>
       <r>    8.7703    0.0000 </r>
       <r>    8.8124    0.0000 </r>
       <r>    8.8124    0.0000 </r>
       <r>    9.3556    0.0000 </r>
       <r>    9.3556    0.0000 </r>
      </set>
      <set comment="kpoint 9">
       <r>   -4.0226    1.0000 </r>
       <r>   -4.0226    1.0000 </r>
       <r>   -4.0226    1.0000 </r>
       <r>   -4.0226    1.0000 </r>
       <r>   -0.6338    1.0000 </r>
       <r>   -0.6338    1.0000 </r>
       <r>   -0.6338    1.0000 </r>
       <r>   -0.6338    1.0000 </r>
       <r>    3.2859    1.0000 </r>
       <r>    3.2859    1.0000 </r>
       <r>    3.2859    1.0000 </r>
       <r>    3.2859    1.0000 </r>
       <r>    4.5011    1.0000 </r>
       <r>    4.5011    1.0000 </r>
       <r>    4.5011    1.0000 </r>
       <r>    4.5011    1.0000 </r>
       <r>    8.0600    0.0000 </r>
       <r>    8.0600    0.0000 </r>
       <r>    8.0600    0.0000 </r>
       <r>    8.0600    0.0000 </r>
       <r>    9.3201    0.0000 </r>
       <r>    9.3201    0.0000 </r>
       <r>    9.3201    0.0000 </r>
       <r>    9.3201    0.0000 </r>
      </set>
      <set comment="kpoint 10">
       <r>   -3.8605    1.0000 </r>
       <r>   -3.8605    1.0000 </r>
       <r>   -3.8605    1.0000 </r>
       <r>   -3.8605    1.0000 </r>
       <r>   -1.2346    1.0000 </r>
       <r>   -1.2346    1.0000 </r>
       <r>   -1.2346    1.0000 </r>
       <r>   -1.2346    1.0000 </r>
       <r>    4.5700    1.0000 </r>
       <r>    4.5700    1.0000 </r>
       <r>    4.5700    1.0000 </r>
       <r>    4.5700    1.0000 </r>
       <r>    4.5700    1.0000 </r>
       <r>    4.5700    1.0000 </r>
       <r>    4.5700    1.0000 </r>
       <r>    4.5700    1.0000 </r>
       <r>    7.2323    0.0000 </r>
       <r>    7.2323    0.0000 </r>
       <r>    7.2323    0.0000 </r>
       <r>    7.2323    0.0000 </r>
       <r>    9.0502    0.0000 </r>
       <r>    9.0502    0.0000 </r>
       <r>    9.0502    0.0000 </r>
       <r>    9.0502    0.0000 </r>
      </set>
     </set>
    </set>
   </array>
  </eigenvalues>
  <separator name="orbital magnetization" >
   <v name="MAGDIPOLOUT">      0.00000000      0.00000000      0.00000000</v>
  </separator>
  <dos>
   <i name="efermi">      5.90193926 </i>
   <total>
    <array>
     <dimension dim="1">gridpoints</dimension>
     <dimension dim="2">spin</dimension>
     <field>energy</field>
     <field>total</field>
     <field>integrated</field>
     <set>
      <set comment="spin 1">
       <r>    -7.0414     0.0000     0.0000 </r>
       <r>    -6.9801     0.0000     0.0000 </r>
       <r>    -6.9188     0.0000     0.0000 </r>
       <r>    -6.8575     0.0000     0.0000 </r>
       <r>    -6.7962     0.0000     0.0000 </r>
       <r>    -6.7349     0.0000     0.0000 </r>
       <r>    -6.6736     0.0000     0.0000 </r>
       <r>    -6.6123     0.0000     0.0000 </r>
       <r>    -6.5510     0.0000     0.0000 </r>
       <r>    -6.4897     0.0000     0.0000 </r>
       <r>    -6.4284     0.0000     0.0000 </r>
       <r>    -6.3671     0.0000     0.0000 </r>
       <r>    -6.3058     0.0000     0.0000 </r>
       <r>    -6.2445     0.0015     0.0001 </r>
       <r>    -6.1831     0.4790     0.0295 </r>
       <r>    -6.1218     0.0293     0.0312 </r>
       <r>    -6.0605     0.0000     0.0312 </r>
       <r>    -5.9992     0.0000     0.0313 </r>
       <r>    -5.9379     1.0285     0.0943 </r>
       <r>    -5.8766     2.0297     0.2187 </r>
       <r>    -5.8153     0.0001     0.2188 </r>
       <r>    -5.7540     0.0000     0.2188 </r>
       <r>    -5.6927     0.1262     0.2265 </r>
       <r>    -5.6314     5.9240     0.5897 </r>
       <r>    -5.5701     0.0666     0.5937 </r>
       <r>    -5.5088     0.0000     0.5938 </r>
       <r>    -5.4475     0.0040     0.5940 </r>
       <r>    -5.3862     3.6331     0.8167 </r>
       <r>    -5.3249     0.4408     0.8437 </r>
       <r>    -5.2635     0.0000     0.8438 </r>
       <r>    -5.2022     0.0000     0.8438 </r>
       <r>    -5.1409     0.2482     0.8590 </r>
       <r>    -5.0796     2.8051     1.0309 </r>
       <r>    -5.0183     0.0051     1.0312 </r>
       <r>    -4.9570     0.0000     1.0313 </r>
       <r>    -4.8957     0.6289     1.0698 </r>
       <r>    -4.8344    11.5627     1.7787 </r>
       <r>    -4.7731     0.0419     1.7812 </r>
       <r>    -4.7118     0.0000     1.7813 </r>
       <r>    -4.6505     3.9672     2.0245 </r>
       <r>    -4.5892     8.2658     2.5312 </r>
       <r>    -4.5279     0.0006     2.5312 </r>
       <r>    -4.4666     0.0000     2.5312 </r>
       <r>    -4.4053     0.0000     2.5312 </r>
       <r>    -4.3439     0.0000     2.5312 </r>
       <r>    -4.2826     0.0000     2.5312 </r>
       <r>    -4.2213     0.0000     2.5313 </r>
       <r>    -4.1600     2.1982     2.6660 </r>
       <r>    -4.0987     3.9184     2.9062 </r>
       <r>    -4.0374     1.8019     3.0167 </r>
       <r>    -3.9761    10.4257     3.6559 </r>
       <r>    -3.9148     0.0063     3.6563 </r>
       <r>    -3.8535     1.4092     3.7426 </r>
       <r>    -3.7922     3.1617     3.9365 </r>
       <r>    -3.7309     0.5263     3.9687 </r>
       <r>    -3.6696     0.0000     3.9688 </r>
       <r>    -3.6083     5.0821     4.2803 </r>
       <r>    -3.5470     7.1512     4.7187 </r>
       <r>    -3.4857     3.4970     4.9331 </r>
       <r>    -3.4243     8.7358     5.4687 </r>
       <r>    -3.3630     0.0213     5.4700 </r>
       <r>    -3.3017    11.2222     6.1580 </r>
       <r>    -3.2404     0.9911     6.2187 </r>
       <r>    -3.1791     0.0000     6.2188 </r>
       <r>    -3.1178     0.0202     6.2200 </r>
       <r>    -3.0565    11.2205     6.9079 </r>
       <r>    -2.9952     0.9929     6.9687 </r>
       <r>    -2.9339     0.0000     6.9688 </r>
       <r>    -2.8726     0.0000     6.9688 </r>
       <r>    -2.8113     0.0000     6.9688 </r>
       <r>    -2.7500     0.0000     6.9688 </r>
       <r>    -2.6887     0.0000     6.9688 </r>
       <r>    -2.6274     0.0000     6.9688 </r>
       <r>    -2.5661     0.0000     6.9688 </r>
       <r>    -2.5047     0.0043     6.9690 </r>
       <r>    -2.4434     5.3404     7.2964 </r>
       <r>    -2.3821     0.7720     7.3437 </r>
       <r>    -2.3208     0.0000     7.3438 </r>
       <r>    -2.2595     0.0000     7.3438 </r>
       <r>    -2.1982     0.0000     7.3438 </r>
       <r>    -2.1369     0.0000     7.3438 </r>
       <r>    -2.0756     0.1411     7.3524 </r>
       <r>    -2.0143     2.9196     7.5314 </r>
       <r>    -1.9530    11.0408     8.2083 </r>
       <r>    -1.8917     2.7792     8.3786 </r>
       <r>    -1.8304     4.5274     8.6562 </r>
       <r>    -1.7691     0.0007     8.6562 </r>
       <r>    -1.7078     0.0000     8.6562 </r>
       <r>    -1.6464     0.0000     8.6562 </r>
       <r>    -1.5851     0.0000     8.6562 </r>
       <r>    -1.5238     0.0000     8.6563 </r>
       <r>    -1.4625     3.0569     8.8437 </r>
       <r>    -1.4012     3.0598     9.0312 </r>
       <r>    -1.3399     0.0000     9.0313 </r>
       <r>    -1.2786     0.0019     9.0314 </r>
       <r>    -1.2173     1.8114     9.1424 </r>
       <r>    -1.1560     0.2256     9.1562 </r>
       <r>    -1.0947     0.0004     9.1563 </r>
       <r>    -1.0334     7.7523     9.6315 </r>
       <r>    -0.9721     4.4808     9.9062 </r>
       <r>    -0.9108     0.0000     9.9063 </r>
       <r>    -0.8495     0.0060     9.9066 </r>
       <r>    -0.7882    10.3985    10.5441 </r>
       <r>    -0.7268     1.8291    10.6562 </r>
       <r>    -0.6655     0.1754    10.6670 </r>
       <r>    -0.6042    23.1340    12.0853 </r>
       <r>    -0.5429     1.1577    12.1562 </r>
       <r>    -0.4816     0.0000    12.1562 </r>
       <r>    -0.4203     0.0000    12.1562 </r>
       <r>    -0.3590     0.0000    12.1562 </r>
       <r>    -0.2977     0.0000    12.1563 </r>
       <r>    -0.2364     0.0213    12.1576 </r>
       <r>    -0.1751    11.2494    12.8472 </r>
       <r>    -0.1138     0.9629    12.9062 </r>
       <r>    -0.0525     0.0000    12.9063 </r>
       <r>     0.0088     0.4631    12.9346 </r>
       <r>     0.0701     2.5939    13.0937 </r>
       <r>     0.1314     0.0015    13.0937 </r>
       <r>     0.1928     0.0000    13.0938 </r>
       <r>     0.2541     0.1447    13.1026 </r>
       <r>     0.3154     5.9149    13.4652 </r>
       <r>     0.3767     0.0572    13.4688 </r>
       <r>     0.4380     0.3360    13.4893 </r>
       <r>     0.4993    11.8015    14.2129 </r>
       <r>     0.5606     0.0961    14.2187 </r>
       <r>     0.6219     0.0000    14.2188 </r>
       <r>     0.6832     0.0000    14.2188 </r>
       <r>     0.7445     0.0000    14.2188 </r>
       <r>     0.8058     0.0000    14.2188 </r>
       <r>     0.8671     0.0000    14.2188 </r>
       <r>     0.9284     0.0000    14.2188 </r>
       <r>     0.9897     0.0000    14.2188 </r>
       <r>     1.0510     0.0000    14.2188 </r>
       <r>     1.1124     0.0000    14.2188 </r>
       <r>     1.1737     0.0000    14.2188 </r>
       <r>     1.2350     0.0000    14.2188 </r>
       <r>     1.2963     0.0000    14.2188 </r>
       <r>     1.3576     0.0001    14.2188 </r>
       <r>     1.4189     3.3628    14.4249 </r>
       <r>     1.4802    12.9280    15.2175 </r>
       <r>     1.5415    14.2889    16.0935 </r>
       <r>     1.6028     0.0041    16.0937 </r>
       <r>     1.6641     0.0000    16.0938 </r>
       <r>     1.7254     0.0000    16.0938 </r>
       <r>     1.7867     0.0217    16.0951 </r>
       <r>     1.8480     4.2079    16.3531 </r>
       <r>     1.9093     5.9431    16.7174 </r>
       <r>     1.9706     2.6048    16.8771 </r>
       <r>     2.0320     3.5338    17.0937 </r>
       <r>     2.0933     0.0001    17.0938 </r>
       <r>     2.1546     0.0116    17.0945 </r>
       <r>     2.2159    10.8969    17.7625 </r>
       <r>     2.2772     7.1556    18.2012 </r>
       <r>     2.3385    20.8725    19.4808 </r>
       <r>     2.3998    12.7384    20.2618 </r>
       <r>     2.4611     0.3177    20.2812 </r>
       <r>     2.5224     0.0000    20.2812 </r>
       <r>     2.5837     0.0000    20.2812 </r>
       <r>     2.6450     0.0000    20.2812 </r>
       <r>     2.7063     0.0000    20.2812 </r>
       <r>     2.7676     0.0000    20.2812 </r>
       <r>     2.8289     0.0000    20.2813 </r>
       <r>     2.8902     0.6293    20.3198 </r>
       <r>     2.9516     2.5786    20.4779 </r>
       <r>     3.0129    14.2536    21.3518 </r>
       <r>     3.0742    12.6493    22.1272 </r>
       <r>     3.1355     5.2106    22.4467 </r>
       <r>     3.1968    16.6200    23.4656 </r>
       <r>     3.2581     0.3525    23.4872 </r>
       <r>     3.3194    13.0151    24.2851 </r>
       <r>     3.3807     5.0324    24.5937 </r>
       <r>     3.4420     0.0016    24.5938 </r>
       <r>     3.5033     0.0030    24.5939 </r>
       <r>     3.5646    10.1717    25.2175 </r>
       <r>     3.6259    14.2054    26.0884 </r>
       <r>     3.6872     0.0871    26.0937 </r>
       <r>     3.7485     0.0000    26.0938 </r>
       <r>     3.8098     0.0002    26.0938 </r>
       <r>     3.8712     3.7971    26.3266 </r>
       <r>     3.9325    12.5942    27.0987 </r>
       <r>     3.9938     1.9589    27.2187 </r>
       <r>     4.0551     0.0000    27.2188 </r>
       <r>     4.1164     2.6730    27.3826 </r>
       <r>     4.1777    10.7311    28.0405 </r>
       <r>     4.2390     4.9462    28.3437 </r>
       <r>     4.3003     0.1530    28.3531 </r>
       <r>     4.3616    11.8587    29.0801 </r>
       <r>     4.4229     1.8942    29.1963 </r>
       <r>     4.4842     8.9302    29.7437 </r>
       <r>     4.5455    10.9668    30.4161 </r>
       <r>     4.6068     3.8987    30.6551 </r>
       <r>     4.6681     0.0187    30.6562 </r>
       <r>     4.7294     0.0000    30.6562 </r>
       <r>     4.7908     0.0000    30.6562 </r>
       <r>     4.8521     0.0000    30.6563 </r>
       <r>     4.9134     0.0091    30.6568 </r>
       <r>     4.9747     5.6589    31.0037 </r>
       <r>     5.0360     8.4153    31.5196 </r>
       <r>     5.0973     0.1892    31.5312 </r>
       <r>     5.1586     0.0000    31.5312 </r>
       <r>     5.2199     0.0000    31.5312 </r>
       <r>     5.2812     0.0000    31.5312 </r>
       <r>     5.3425     0.0000    31.5312 </r>
       <r>     5.4038     0.0000    31.5313 </r>
       <r>     5.4651     0.8555    31.5837 </r>
       <r>     5.5264     5.2578    31.9060 </r>
       <r>     5.5877     0.0035    31.9062 </r>
       <r>     5.6490     0.0000    31.9062 </r>
       <r>     5.7104     0.0000    31.9063 </r>
       <r>     5.7717     0.7441    31.9519 </r>
       <r>     5.8330     0.7851    32.0000 </r>
       <r>     5.8943     0.0000    32.0000 </r>
       <r>     5.9556     0.0000    32.0000 </r>
       <r>     6.0169     0.0000    32.0000 </r>
       <r>     6.0782     0.0000    32.0000 </r>
       <r>     6.1395     0.0000    32.0000 </r>
       <r>     6.2008     0.0000    32.0000 </r>
       <r>     6.2621     0.3190    32.0196 </r>
       <r>     6.3234     2.7402    32.1876 </r>
       <r>     6.3847     2.7763    32.3578 </r>
       <r>     6.4460     0.2812    32.3750 </r>
       <r>     6.5073     0.0000    32.3750 </r>
       <r>     6.5686     0.0000    32.3750 </r>
       <r>     6.6300     0.0000    32.3750 </r>
       <r>     6.6913     0.0000    32.3750 </r>
       <r>     6.7526     0.0001    32.3750 </r>
       <r>     6.8139     2.0026    32.4978 </r>
       <r>     6.8752     5.5957    32.8408 </r>
       <r>     6.9365     1.5767    32.9375 </r>
       <r>     6.9978     0.0000    32.9375 </r>
       <r>     7.0591     0.0000    32.9375 </r>
       <r>     7.1204     0.0000    32.9375 </r>
       <r>     7.1817     4.3129    33.2019 </r>
       <r>     7.2430    12.5612    33.9720 </r>
       <r>     7.3043     0.4568    34.0000 </r>
       <r>     7.3656     0.0000    34.0000 </r>
       <r>     7.4269     0.0000    34.0000 </r>
       <r>     7.4883     0.0000    34.0000 </r>
       <r>     7.5496     0.0000    34.0000 </r>
       <r>     7.6109     0.9257    34.0568 </r>
       <r>     7.6722    23.1223    35.4743 </r>
       <r>     7.7335     6.0203    35.8434 </r>
       <r>     7.7948     1.5350    35.9375 </r>
       <r>     7.8561     0.0000    35.9375 </r>
       <r>     7.9174     0.6516    35.9774 </r>
       <r>     7.9787    11.5422    36.6851 </r>
       <r>     8.0400     1.0072    36.7468 </r>
       <r>     8.1013    11.2832    37.4385 </r>
       <r>     8.1626    16.6382    38.4586 </r>
       <r>     8.2239     1.6951    38.5625 </r>
       <r>     8.2852     0.6015    38.5994 </r>
       <r>     8.3465    12.4830    39.3647 </r>
       <r>     8.4079     0.1685    39.3750 </r>
       <r>     8.4692     0.0000    39.3750 </r>
       <r>     8.5305     0.6794    39.4167 </r>
       <r>     8.5918    11.5168    40.1227 </r>
       <r>     8.6531     0.0374    40.1250 </r>
       <r>     8.7144     0.0018    40.1251 </r>
       <r>     8.7757    13.0290    40.9239 </r>
       <r>     8.8370    21.2625    42.2274 </r>
       <r>     8.8983     5.4641    42.5624 </r>
       <r>     8.9596     0.0017    42.5625 </r>
       <r>     9.0209     0.0409    42.5650 </r>
       <r>     9.0822     6.8905    42.9874 </r>
       <r>     9.1435     1.2243    43.0625 </r>
       <r>     9.2048     0.2654    43.0788 </r>
       <r>     9.2661     7.8391    43.5594 </r>
       <r>     9.3275     8.8905    44.1044 </r>
       <r>     9.3888    15.5109    45.0553 </r>
       <r>     9.4501     2.5090    45.2091 </r>
       <r>     9.5114     0.6664    45.2500 </r>
       <r>     9.5727     0.0878    45.2554 </r>
       <r>     9.6340    11.7837    45.9778 </r>
       <r>     9.6953     0.3621    46.0000 </r>
       <r>     9.7566     0.0000    46.0000 </r>
       <r>     9.8179     0.0001    46.0000 </r>
       <r>     9.8792     6.1078    46.3745 </r>
       <r>     9.9405     7.9848    46.8640 </r>
       <r>    10.0018     4.2573    47.1250 </r>
       <r>    10.0631     0.0004    47.1250 </r>
       <r>    10.1244     2.5030    47.2785 </r>
       <r>    10.1857     5.6521    47.6250 </r>
       <r>    10.2471     0.0005    47.6250 </r>
       <r>    10.3084     0.0000    47.6250 </r>
       <r>    10.3697     0.0000    47.6250 </r>
       <r>    10.4310     0.0000    47.6250 </r>
       <r>    10.4923     0.3515    47.6466 </r>
       <r>    10.5536     5.7475    47.9989 </r>
       <r>    10.6149     0.0178    48.0000 </r>
       <r>    10.6762     0.0000    48.0000 </r>
       <r>    10.7375     0.0000    48.0000 </r>
       <r>    10.7988     0.0000    48.0000 </r>
       <r>    10.8601     0.0000    48.0000 </r>
       <r>    10.9214     0.0000    48.0000 </r>
       <r>    10.9827     0.0000    48.0000 </r>
       <r>    11.0440     0.0000    48.0000 </r>
       <r>    11.1053     0.0000    48.0000 </r>
       <r>    11.1667     0.0000    48.0000 </r>
       <r>    11.2280     0.0000    48.0000 </r>
       <r>    11.2893     0.0000    48.0000 </r>
       <r>    11.3506     0.0000    48.0000 </r>
      </set>
     </set>
    </array>
   </total>
  </dos>
 </calculation>
 <structure name="finalpos" >
  <crystal>
   <varray name="basis" >
    <v>       5.43453742      -0.00000000       0.00000000 </v>
    <v>      -0.00000000       5.43453742      -0.00000000 </v>
    <v>      -0.00000000      -0.00000000       5.43453742 </v>
   </varray>
   <i name="volume">    160.50469889 </i>
   <varray name="rec_basis" >
    <v>       0.18400830       0.00000000       0.00000000 </v>
    <v>       0.00000000       0.18400830       0.00000000 </v>
    <v>      -0.00000000       0.00000000       0.18400830 </v>
   </varray>
  </crystal>
  <varray name="positions" >
   <v>       0.50000000       0.00000000       0.00000000 </v>
   <v>       0.25000000       0.25000000       0.75000000 </v>
   <v>       0.50000000       0.50000000       0.50000000 </v>
   <v>       0.25000000       0.75000000       0.25000000 </v>
   <v>       0.00000000      -0.00000000       0.50000000 </v>
   <v>       0.75000000       0.25000000       0.25000000 </v>
   <v>       0.00000000       0.50000000       0.00000000 </v>
   <v>       0.75000000       0.75000000       0.75000000 </v>
  </varray>
 </structure>
</modeling>
