unknown system                          
           1
     5.434537    0.000000    0.000000
     0.000000    5.434537    0.000000
     0.000000    0.000000    5.434537
   Si
     8
Direct configuration=     1
   0.50000000  0.00000000  0.00000000
   0.25000000  0.25000000  0.75000000
   0.50000000  0.50000000  0.50000000
   0.25000000  0.75000000  0.25000000
   0.00000000  0.00000000  0.50000000
   0.75000000  0.25000000  0.25000000
   0.00000000  0.50000000  0.00000000
   0.75000000  0.75000000  0.75000000
unknown system                          
           1
     5.434538   -0.000000    0.000000
    -0.000000    5.434538   -0.000000
    -0.000000   -0.000000    5.434538
   Si
     8
Direct configuration=     2
   0.50000000  0.00000000  0.00000000
   0.25000000  0.25000000  0.75000000
   0.50000000  0.50000000  0.50000000
   0.25000000  0.75000000  0.25000000
   0.00000000 -0.00000000  0.50000000
   0.75000000  0.25000000  0.25000000
   0.00000000  0.50000000  0.00000000
   0.75000000  0.75000000  0.75000000
unknown system                          
           1
     5.434537   -0.000000    0.000000
    -0.000000    5.434537   -0.000000
    -0.000000   -0.000000    5.434537
   Si
     8
Direct configuration=     3
   0.50000000  0.00000000  0.00000000
   0.25000000  0.25000000  0.75000000
   0.50000000  0.50000000  0.50000000
   0.25000000  0.75000000  0.25000000
   0.00000000 -0.00000000  0.50000000
   0.75000000  0.25000000  0.25000000
   0.00000000  0.50000000  0.00000000
   0.75000000  0.75000000  0.75000000
