  64  64   0   0
  0.2197554E+02  0.1120400E-08  0.1120400E-08  0.1120400E-08  0.5000000E-15
  1.000000000000000E-004
  CAR 
 unknown system                          
     11.05760768    -22.84786217  301     -0.55501574      1.00000000
    -22.848  0.0000E+00  0.0000E+00
    -22.735  0.0000E+00  0.0000E+00
    -22.622  0.0000E+00  0.0000E+00
    -22.509  0.0000E+00  0.0000E+00
    -22.396  0.0000E+00  0.0000E+00
    -22.283  0.0000E+00  0.0000E+00
    -22.170  0.0000E+00  0.0000E+00
    -22.057  0.0000E+00  0.0000E+00
    -21.944  0.0000E+00  0.0000E+00
    -21.831  0.0000E+00  0.0000E+00
    -21.718  0.0000E+00  0.0000E+00
    -21.605  0.0000E+00  0.0000E+00
    -21.492  0.0000E+00  0.0000E+00
    -21.379  0.4312E-05  0.4873E-06
    -21.266  0.1380E+04  0.1559E+03
    -21.153  0.3191E+03  0.1920E+03
    -21.040  0.0000E+00  0.1920E+03
    -20.927  0.0000E+00  0.1920E+03
    -20.814  0.0000E+00  0.1920E+03
    -20.701  0.0000E+00  0.1920E+03
    -20.587  0.0000E+00  0.1920E+03
    -20.474  0.0000E+00  0.1920E+03
    -20.361  0.0000E+00  0.1920E+03
    -20.248  0.0000E+00  0.1920E+03
    -20.135  0.0000E+00  0.1920E+03
    -20.022  0.0000E+00  0.1920E+03
    -19.909  0.0000E+00  0.1920E+03
    -19.796  0.0000E+00  0.1920E+03
    -19.683  0.0000E+00  0.1920E+03
    -19.570  0.0000E+00  0.1920E+03
    -19.457  0.0000E+00  0.1920E+03
    -19.344  0.0000E+00  0.1920E+03
    -19.231  0.0000E+00  0.1920E+03
    -19.118  0.0000E+00  0.1920E+03
    -19.005  0.0000E+00  0.1920E+03
    -18.892  0.0000E+00  0.1920E+03
    -18.779  0.0000E+00  0.1920E+03
    -18.666  0.0000E+00  0.1920E+03
    -18.553  0.0000E+00  0.1920E+03
    -18.440  0.0000E+00  0.1920E+03
    -18.327  0.0000E+00  0.1920E+03
    -18.214  0.0000E+00  0.1920E+03
    -18.101  0.0000E+00  0.1920E+03
    -17.988  0.0000E+00  0.1920E+03
    -17.875  0.0000E+00  0.1920E+03
    -17.762  0.0000E+00  0.1920E+03
    -17.649  0.0000E+00  0.1920E+03
    -17.536  0.0000E+00  0.1920E+03
    -17.423  0.0000E+00  0.1920E+03
    -17.310  0.0000E+00  0.1920E+03
    -17.197  0.0000E+00  0.1920E+03
    -17.084  0.0000E+00  0.1920E+03
    -16.971  0.0000E+00  0.1920E+03
    -16.858  0.0000E+00  0.1920E+03
    -16.745  0.0000E+00  0.1920E+03
    -16.632  0.0000E+00  0.1920E+03
    -16.519  0.0000E+00  0.1920E+03
    -16.406  0.0000E+00  0.1920E+03
    -16.293  0.0000E+00  0.1920E+03
    -16.180  0.0000E+00  0.1920E+03
    -16.067  0.0000E+00  0.1920E+03
    -15.954  0.0000E+00  0.1920E+03
    -15.841  0.0000E+00  0.1920E+03
    -15.728  0.0000E+00  0.1920E+03
    -15.615  0.0000E+00  0.1920E+03
    -15.502  0.0000E+00  0.1920E+03
    -15.389  0.0000E+00  0.1920E+03
    -15.276  0.0000E+00  0.1920E+03
    -15.163  0.0000E+00  0.1920E+03
    -15.050  0.0000E+00  0.1920E+03
    -14.937  0.0000E+00  0.1920E+03
    -14.824  0.0000E+00  0.1920E+03
    -14.711  0.0000E+00  0.1920E+03
    -14.598  0.0000E+00  0.1920E+03
    -14.485  0.0000E+00  0.1920E+03
    -14.371  0.0000E+00  0.1920E+03
    -14.258  0.0000E+00  0.1920E+03
    -14.145  0.0000E+00  0.1920E+03
    -14.032  0.0000E+00  0.1920E+03
    -13.919  0.0000E+00  0.1920E+03
    -13.806  0.0000E+00  0.1920E+03
    -13.693  0.0000E+00  0.1920E+03
    -13.580  0.0000E+00  0.1920E+03
    -13.467  0.1375E-13  0.1920E+03
    -13.354  0.1351E+01  0.1922E+03
    -13.241  0.2119E+02  0.1945E+03
    -13.128  0.4811E+02  0.2000E+03
    -13.015  0.1307E+03  0.2148E+03
    -12.902  0.3611E+03  0.2556E+03
    -12.789  0.3833E+01  0.2560E+03
    -12.676  0.0000E+00  0.2560E+03
    -12.563  0.0000E+00  0.2560E+03
    -12.450  0.0000E+00  0.2560E+03
    -12.337  0.0000E+00  0.2560E+03
    -12.224  0.0000E+00  0.2560E+03
    -12.111  0.0000E+00  0.2560E+03
    -11.998  0.0000E+00  0.2560E+03
    -11.885  0.0000E+00  0.2560E+03
    -11.772  0.0000E+00  0.2560E+03
    -11.659  0.0000E+00  0.2560E+03
    -11.546  0.0000E+00  0.2560E+03
    -11.433  0.0000E+00  0.2560E+03
    -11.320  0.0000E+00  0.2560E+03
    -11.207  0.0000E+00  0.2560E+03
    -11.094  0.0000E+00  0.2560E+03
    -10.981  0.0000E+00  0.2560E+03
    -10.868  0.0000E+00  0.2560E+03
    -10.755  0.0000E+00  0.2560E+03
    -10.642  0.0000E+00  0.2560E+03
    -10.529  0.0000E+00  0.2560E+03
    -10.416  0.0000E+00  0.2560E+03
    -10.303  0.0000E+00  0.2560E+03
    -10.190  0.0000E+00  0.2560E+03
    -10.077  0.0000E+00  0.2560E+03
     -9.964  0.0000E+00  0.2560E+03
     -9.851  0.0000E+00  0.2560E+03
     -9.738  0.0000E+00  0.2560E+03
     -9.625  0.0000E+00  0.2560E+03
     -9.512  0.0000E+00  0.2560E+03
     -9.399  0.0000E+00  0.2560E+03
     -9.286  0.0000E+00  0.2560E+03
     -9.173  0.0000E+00  0.2560E+03
     -9.060  0.0000E+00  0.2560E+03
     -8.947  0.0000E+00  0.2560E+03
     -8.834  0.0000E+00  0.2560E+03
     -8.721  0.0000E+00  0.2560E+03
     -8.608  0.0000E+00  0.2560E+03
     -8.495  0.0000E+00  0.2560E+03
     -8.382  0.0000E+00  0.2560E+03
     -8.269  0.0000E+00  0.2560E+03
     -8.155  0.0000E+00  0.2560E+03
     -8.042  0.0000E+00  0.2560E+03
     -7.929  0.0000E+00  0.2560E+03
     -7.816  0.0000E+00  0.2560E+03
     -7.703  0.0000E+00  0.2560E+03
     -7.590  0.0000E+00  0.2560E+03
     -7.477  0.0000E+00  0.2560E+03
     -7.364  0.0000E+00  0.2560E+03
     -7.251  0.0000E+00  0.2560E+03
     -7.138  0.0000E+00  0.2560E+03
     -7.025  0.0000E+00  0.2560E+03
     -6.912  0.0000E+00  0.2560E+03
     -6.799  0.0000E+00  0.2560E+03
     -6.686  0.0000E+00  0.2560E+03
     -6.573  0.0000E+00  0.2560E+03
     -6.460  0.0000E+00  0.2560E+03
     -6.347  0.0000E+00  0.2560E+03
     -6.234  0.0000E+00  0.2560E+03
     -6.121  0.0000E+00  0.2560E+03
     -6.008  0.0000E+00  0.2560E+03
     -5.895  0.0000E+00  0.2560E+03
     -5.782  0.0000E+00  0.2560E+03
     -5.669  0.0000E+00  0.2560E+03
     -5.556  0.0000E+00  0.2560E+03
     -5.443  0.0000E+00  0.2560E+03
     -5.330  0.0000E+00  0.2560E+03
     -5.217  0.0000E+00  0.2560E+03
     -5.104  0.0000E+00  0.2560E+03
     -4.991  0.0000E+00  0.2560E+03
     -4.878  0.0000E+00  0.2560E+03
     -4.765  0.0000E+00  0.2560E+03
     -4.652  0.0000E+00  0.2560E+03
     -4.539  0.0000E+00  0.2560E+03
     -4.426  0.0000E+00  0.2560E+03
     -4.313  0.0000E+00  0.2560E+03
     -4.200  0.0000E+00  0.2560E+03
     -4.087  0.0000E+00  0.2560E+03
     -3.974  0.0000E+00  0.2560E+03
     -3.861  0.0000E+00  0.2560E+03
     -3.748  0.0000E+00  0.2560E+03
     -3.635  0.0000E+00  0.2560E+03
     -3.522  0.0000E+00  0.2560E+03
     -3.409  0.0000E+00  0.2560E+03
     -3.296  0.0000E+00  0.2560E+03
     -3.183  0.0000E+00  0.2560E+03
     -3.070  0.0000E+00  0.2560E+03
     -2.957  0.0000E+00  0.2560E+03
     -2.844  0.0000E+00  0.2560E+03
     -2.731  0.1369E+00  0.2560E+03
     -2.618  0.8711E+01  0.2570E+03
     -2.505  0.2640E+02  0.2600E+03
     -2.392  0.8284E+02  0.2693E+03
     -2.279  0.8333E+02  0.2788E+03
     -2.166  0.1540E+03  0.2962E+03
     -2.053  0.7153E+02  0.3043E+03
     -1.939  0.5708E+02  0.3107E+03
     -1.826  0.6315E+02  0.3178E+03
     -1.713  0.7000E+02  0.3257E+03
     -1.600  0.2874E-09  0.3258E+03
     -1.487  0.7515E+02  0.3342E+03
     -1.374  0.1932E+03  0.3561E+03
     -1.261  0.2400E+02  0.3588E+03
     -1.148  0.2550E+03  0.3876E+03
     -1.035  0.1358E+03  0.4030E+03
     -0.922  0.2589E+03  0.4322E+03
     -0.809  0.6269E+02  0.4393E+03
     -0.696  0.7029E+02  0.4473E+03
     -0.583  0.6590E+01  0.4480E+03
     -0.470  0.0000E+00  0.4480E+03
     -0.357  0.0000E+00  0.4480E+03
     -0.244  0.0000E+00  0.4480E+03
     -0.131  0.0000E+00  0.4480E+03
     -0.018  0.0000E+00  0.4480E+03
      0.095  0.0000E+00  0.4480E+03
      0.208  0.0000E+00  0.4480E+03
      0.321  0.0000E+00  0.4480E+03
      0.434  0.0000E+00  0.4480E+03
      0.547  0.0000E+00  0.4480E+03
      0.660  0.0000E+00  0.4480E+03
      0.773  0.0000E+00  0.4480E+03
      0.886  0.0000E+00  0.4480E+03
      0.999  0.0000E+00  0.4480E+03
      1.112  0.0000E+00  0.4480E+03
      1.225  0.0000E+00  0.4480E+03
      1.338  0.0000E+00  0.4480E+03
      1.451  0.0000E+00  0.4480E+03
      1.564  0.0000E+00  0.4480E+03
      1.677  0.0000E+00  0.4480E+03
      1.790  0.0000E+00  0.4480E+03
      1.903  0.0000E+00  0.4480E+03
      2.016  0.0000E+00  0.4480E+03
      2.129  0.0000E+00  0.4480E+03
      2.242  0.0000E+00  0.4480E+03
      2.355  0.0000E+00  0.4480E+03
      2.468  0.0000E+00  0.4480E+03
      2.581  0.0000E+00  0.4480E+03
      2.694  0.0000E+00  0.4480E+03
      2.807  0.0000E+00  0.4480E+03
      2.920  0.0000E+00  0.4480E+03
      3.033  0.0000E+00  0.4480E+03
      3.146  0.0000E+00  0.4480E+03
      3.259  0.0000E+00  0.4480E+03
      3.372  0.0000E+00  0.4480E+03
      3.485  0.0000E+00  0.4480E+03
      3.598  0.0000E+00  0.4480E+03
      3.711  0.0000E+00  0.4480E+03
      3.824  0.0000E+00  0.4480E+03
      3.937  0.0000E+00  0.4480E+03
      4.050  0.0000E+00  0.4480E+03
      4.163  0.0000E+00  0.4480E+03
      4.277  0.7146E-05  0.4480E+03
      4.390  0.2211E+01  0.4482E+03
      4.503  0.0000E+00  0.4482E+03
      4.616  0.0000E+00  0.4482E+03
      4.729  0.0000E+00  0.4482E+03
      4.842  0.0000E+00  0.4482E+03
      4.955  0.1443E-04  0.4483E+03
      5.068  0.1326E+02  0.4497E+03
      5.181  0.9663E-02  0.4498E+03
      5.294  0.0000E+00  0.4498E+03
      5.407  0.0000E+00  0.4498E+03
      5.520  0.2297E+01  0.4500E+03
      5.633  0.2425E+02  0.4527E+03
      5.746  0.4389E-07  0.4528E+03
      5.859  0.1714E+02  0.4547E+03
      5.972  0.5608E+00  0.4548E+03
      6.085  0.0000E+00  0.4548E+03
      6.198  0.0000E+00  0.4548E+03
      6.311  0.4042E-03  0.4548E+03
      6.424  0.1390E+02  0.4563E+03
      6.537  0.8218E+01  0.4572E+03
      6.650  0.4110E+02  0.4619E+03
      6.763  0.6503E+02  0.4692E+03
      6.876  0.5916E+02  0.4759E+03
      6.989  0.1250E+02  0.4773E+03
      7.102  0.1389E+01  0.4775E+03
      7.215  0.4767E+01  0.4780E+03
      7.328  0.2089E+01  0.4783E+03
      7.441  0.8098E+02  0.4874E+03
      7.554  0.1679E+03  0.5064E+03
      7.667  0.3042E+01  0.5068E+03
      7.780  0.2653E+02  0.5097E+03
      7.893  0.1690E+00  0.5098E+03
      8.006  0.5292E+02  0.5157E+03
      8.119  0.3520E-02  0.5158E+03
      8.232  0.1380E+02  0.5173E+03
      8.345  0.9237E+02  0.5277E+03
      8.458  0.3509E-02  0.5278E+03
      8.571  0.1487E+03  0.5446E+03
      8.684  0.1054E+02  0.5458E+03
      8.797  0.4139E-06  0.5458E+03
      8.910  0.7995E+02  0.5548E+03
      9.023  0.1257E+03  0.5690E+03
      9.136  0.4494E+01  0.5695E+03
      9.249  0.2306E+02  0.5721E+03
      9.362  0.2118E+02  0.5745E+03
      9.475  0.1117E+01  0.5746E+03
      9.588  0.1216E+02  0.5760E+03
      9.701  0.0000E+00  0.5760E+03
      9.814  0.0000E+00  0.5760E+03
      9.927  0.0000E+00  0.5760E+03
     10.040  0.0000E+00  0.5760E+03
     10.153  0.0000E+00  0.5760E+03
     10.266  0.0000E+00  0.5760E+03
     10.379  0.0000E+00  0.5760E+03
     10.493  0.0000E+00  0.5760E+03
     10.606  0.0000E+00  0.5760E+03
     10.719  0.0000E+00  0.5760E+03
     10.832  0.0000E+00  0.5760E+03
     10.945  0.0000E+00  0.5760E+03
     11.058  0.0000E+00  0.5760E+03
