       N       E                     dE             d eps       ncg     rms          rms(c)
DAV:   1     0.431621805454E+04    0.43162E+04   -0.17183E+05  3456   0.125E+03
DAV:   2     0.363017915537E+03   -0.39532E+04   -0.37621E+04  3840   0.367E+02
DAV:   3    -0.206242794722E+03   -0.56926E+03   -0.56500E+03  4192   0.155E+02
DAV:   4    -0.228194590744E+03   -0.21952E+02   -0.21850E+02  4160   0.330E+01
DAV:   5    -0.229005174091E+03   -0.81058E+00   -0.80928E+00  4224   0.616E+00    0.106E+01
DAV:   6    -0.224137876603E+03    0.48673E+01   -0.94993E+00  4256   0.526E+00    0.776E+00
DAV:   7    -0.223777361436E+03    0.36052E+00   -0.20519E+00  4704   0.236E+00    0.534E+00
DAV:   8    -0.223902431584E+03   -0.12507E+00   -0.26560E-01  4000   0.122E+00    0.140E+00
DAV:   9    -0.223897157400E+03    0.52742E-02   -0.11407E-02  4224   0.258E-01    0.589E-01
DAV:  10    -0.223901504158E+03   -0.43468E-02   -0.17726E-02  3968   0.224E-01    0.286E-01
DAV:  11    -0.223900804508E+03    0.69965E-03   -0.15488E-03  4448   0.792E-02    0.812E-02
DAV:  12    -0.223900766696E+03    0.37812E-04   -0.17197E-04  4384   0.227E-02    0.948E-03
DAV:  13    -0.223900775409E+03   -0.87130E-05   -0.95634E-06  4352   0.596E-03    0.281E-03
DAV:  14    -0.223900774913E+03    0.49600E-06   -0.13288E-06  4608   0.238E-03    0.772E-03
DAV:  15    -0.223900776032E+03   -0.11196E-05   -0.53295E-07  3392   0.166E-03    0.186E-03
DAV:  16    -0.223900776462E+03   -0.42995E-06   -0.68918E-08  4224   0.774E-04    0.566E-04
DAV:  17    -0.223900776387E+03    0.74935E-07   -0.54385E-09  2784   0.441E-04    0.307E-04
DAV:  18    -0.223900776349E+03    0.38446E-07   -0.63809E-09  2592   0.268E-04    0.175E-04
DAV:  19    -0.223900776357E+03   -0.82655E-08   -0.23555E-09  2304   0.206E-04
   1 F= -.22390078E+03 E0= -.22390078E+03  d E =-.357329E-15
