 vasp.6.3.2 27Jun22 (build Oct 14 2022 12:13:54) complex                        
  
 executed on             LinuxIFC date 2025.08.28  22:00:17
 running on   32 total cores
 distrk:  each k-point on   32 cores,    1 groups
 distr:  one band on NCORE=   1 cores,   32 groups


--------------------------------------------------------------------------------------------------------


 INCAR:
   ENCUT = 341.213600
   SIGMA = 0.020000
   EDIFF = 1.00e-08
   GGA = PS
   PREC = Accurate
   IALGO = 38
   IBRION = -1
   ISMEAR = 0
   NELMIN = 5
   ADDGRID = .TRUE.
   LCHARG = .FALSE.
   LWAVE = .FALSE.
   LREAL = .FALSE.

 POTCAR:    PAW_PBE Na_pv 19Sep2006               
 POTCAR:    PAW_PBE Cl 06Sep2000                  
 -----------------------------------------------------------------------------
|                                                                             |
|           W    W    AA    RRRRR   N    N  II  N    N   GGGG   !!!           |
|           W    W   A  A   R    R  NN   N  II  NN   N  G    G  !!!           |
|           W    W  A    A  R    R  N N  N  II  N N  N  G       !!!           |
|           W WW W  AAAAAA  RRRRR   N  N N  II  N  N N  G  GGG   !            |
|           WW  WW  A    A  R   R   N   NN  II  N   NN  G    G                |
|           W    W  A    A  R    R  N    N  II  N    N   GGGG   !!!           |
|                                                                             |
|     For optimal performance we recommend to set                             |
|       NCORE = 2 up to number-of-cores-per-socket                            |
|     NCORE specifies how many cores store one orbital (NPAR=cpu/NCORE).      |
|     This setting can greatly improve the performance of VASP for DFT.       |
|     The default, NCORE=1 might be grossly inefficient on modern             |
|     multi-core architectures or massively parallel machines. Do your        |
|     own testing! More info at https://www.vasp.at/wiki/index.php/NCORE      |
|     Unfortunately you need to use the default for GW and RPA                |
|     calculations (for HF NCORE is supported but not extensively tested      |
|     yet).                                                                   |
|                                                                             |
 -----------------------------------------------------------------------------

 POTCAR:    PAW_PBE Na_pv 19Sep2006               
   SHA256 =  6a2f546d9e11350984debacf3dc457d8cffc0868e817d445faca461816a32b94 Na_pv/POTCAR          
   COPYR  = (c) Copyright 19Sep2006 Georg Kresse                                                    
   COPYR  = This file is part of the software VASP. Any use, copying, and all other rights are regul
   COPYR  = If you do not have a valid VASP license, you may not use, copy or distribute this file. 
   VRHFIN =Na: p6s1                                                                                 
   LEXCH  = PE                                                                                      
   EATOM  =   766.0439 eV,   56.3026 Ry                                                             
                                                                                                    
   TITEL  = PAW_PBE Na_pv 19Sep2006                                                                 
   LULTRA =        F    use ultrasoft PP ?                                                          
   IUNSCR =        1    unscreen: 0-lin 1-nonlin 2-no                                               
   RPACOR =    1.800    partial core radius                                                         
   POMASS =   22.990; ZVAL   =    7.000    mass and valenz                                          
   RCORE  =    2.200    outmost cutoff radius                                                       
   RWIGS  =    2.200; RWIGS  =    1.164    wigner-seitz radius (au A)                               
   ENMAX  =  259.561; ENMIN  =  194.671 eV                                                          
   ICORE  =        2    local potential                                                             
   LCOR   =        T    correct aug charges                                                         
   LPAW   =        T    paw PP                                                                      
   EAUG   =  368.056                                                                                
   DEXC   =    0.000                                                                                
   RMAX   =    2.245    core radius for proj-oper                                                   
   RAUG   =    1.300    factor for augmentation sphere                                              
   RDEP   =    2.259    radius for radial grids                                                     
   RDEPT  =    1.738    core radius for aug-charge                                                  
                                                                                                    
   Atomic configuration                                                                             
    5 entries                                                                                       
     n  l   j            E        occ.                                                              
     1  0  0.50     -1033.6933   2.0000                                                             
     2  0  0.50       -56.7526   2.0000                                                             
     2  1  1.50       -28.6721   6.0000                                                             
     3  0  0.50        -2.7440   1.0000                                                             
     3  2  1.50        -1.3606   0.0000                                                             
   Description                                                                                      
     l       E           TYP  RCUT    TYP  RCUT                                                     
     1    -28.6720912     23  2.000                                                                 
     1      6.8029130     23  2.000                                                                 
     0     -2.7439560     23  2.200                                                                 
     0     34.0145650     23  2.200                                                                 
     2     -1.3605826     23  2.200                                                                 
  local pseudopotential read in
  partial core-charges read in
  partial kinetic energy density read in
  atomic valenz-charges read in
  non local Contribution for L=           1  read in
    real space projection operators read in
  non local Contribution for L=           1  read in
    real space projection operators read in
  non local Contribution for L=           0  read in
    real space projection operators read in
  non local Contribution for L=           0  read in
    real space projection operators read in
    PAW grid and wavefunctions read in
 
   number of l-projection  operators is LMAX  =           4
   number of lm-projection operators is LMMAX =           8
 
 POTCAR:    PAW_PBE Cl 06Sep2000                  
   SHA256 =  9f1b6e6ed4247ac726a768b330d26d7667cc3c95a39ff49c1d064c2d9dcce931 Cl/POTCAR             
   COPYR  = (c) Copyright 06Sep2000 Georg Kresse                                                    
   COPYR  = This file is part of the software VASP. Any use, copying, and all other rights are regul
   COPYR  = If you do not have a valid VASP license, you may not use, copy or distribute this file. 
   VRHFIN =Cl: s2p5                                                                                 
   LEXCH  = PE                                                                                      
   EATOM  =   409.7259 eV,   30.1140 Ry                                                             
                                                                                                    
   TITEL  = PAW_PBE Cl 06Sep2000                                                                    
   LULTRA =        F    use ultrasoft PP ?                                                          
   IUNSCR =        1    unscreen: 0-lin 1-nonlin 2-no                                               
   RPACOR =    1.500    partial core radius                                                         
   POMASS =   35.453; ZVAL   =    7.000    mass and valenz                                          
   RCORE  =    1.900    outmost cutoff radius                                                       
   RWIGS  =    2.100; RWIGS  =    1.111    wigner-seitz radius (au A)                               
   ENMAX  =  262.472; ENMIN  =  196.854 eV                                                          
   ICORE  =        2    local potential                                                             
   LCOR   =        T    correct aug charges                                                         
   LPAW   =        T    paw PP                                                                      
   EAUG   =  356.192                                                                                
   DEXC   =    0.000                                                                                
   RMAX   =    1.945    core radius for proj-oper                                                   
   RAUG   =    1.300    factor for augmentation sphere                                              
   RDEP   =    2.020    radius for radial grids                                                     
   RDEPT  =    1.678    core radius for aug-charge                                                  
                                                                                                    
   Atomic configuration                                                                             
    6 entries                                                                                       
     n  l   j            E        occ.                                                              
     1  0  0.50     -2751.1850   2.0000                                                             
     2  0  0.50      -252.6861   2.0000                                                             
     2  1  1.50      -191.6157   6.0000                                                             
     3  0  0.50       -20.6916   2.0000                                                             
     3  1  0.50        -8.5949   5.0000                                                             
     3  2  1.50        -8.1635   0.0000                                                             
   Description                                                                                      
     l       E           TYP  RCUT    TYP  RCUT                                                     
     0    -20.6915656     23  1.900                                                                 
     0    -22.0521482     23  1.900                                                                 
     1     -8.5948577     23  1.900                                                                 
     1     -5.3847331     23  1.900                                                                 
     2     -8.1634956     23  1.900                                                                 
  local pseudopotential read in
  partial core-charges read in
  partial kinetic energy density read in
  atomic valenz-charges read in
  non local Contribution for L=           0  read in
    real space projection operators read in
  non local Contribution for L=           0  read in
    real space projection operators read in
  non local Contribution for L=           1  read in
    real space projection operators read in
  non local Contribution for L=           1  read in
    real space projection operators read in
    PAW grid and wavefunctions read in
 
   number of l-projection  operators is LMAX  =           4
   number of lm-projection operators is LMMAX =           8
 
 -----------------------------------------------------------------------------
|                                                                             |
|               ----> ADVICE to this user running VASP <----                  |
|                                                                             |
|     You have a (more or less) 'large supercell' and for larger cells it     |
|     might be more efficient to use real-space projection operators.         |
|     Therefore, try LREAL= Auto in the INCAR file.                           |
|     Mind: For very accurate calculation, you might also keep the            |
|     reciprocal projection scheme (i.e. LREAL=.FALSE.).                      |
|                                                                             |
 -----------------------------------------------------------------------------

 -----------------------------------------------------------------------------
|                                                                             |
|               ----> ADVICE to this user running VASP <----                  |
|                                                                             |
|     You enforced a specific xc type in the INCAR file but a different       |
|     type was found in the POTCAR file.                                      |
|     I HOPE YOU KNOW WHAT YOU ARE DOING!                                     |
|                                                                             |
 -----------------------------------------------------------------------------

  PAW_PBE Na_pv 19Sep2006               :
 energy of atom  1       EATOM= -766.0439
 kinetic energy error for atom=    0.0189 (will be added to EATOM!!)
  PAW_PBE Cl 06Sep2000                  :
 energy of atom  2       EATOM= -409.7259
 kinetic energy error for atom=    0.0106 (will be added to EATOM!!)
 
 
 POSCAR: Na Cl
  positions in cartesian coordinates
  No initial velocities read in
 exchange correlation table for  LEXCH =       14
   RHO(1)=    0.500       N(1)  =     2000
   RHO(2)=  100.500       N(2)  =     4000
 


--------------------------------------------------------------------------------------------------------


 ion  position               nearest neighbor table
   1  0.003  0.000  0.000-
   2  0.250  0.250  0.000-
   3  0.250  0.000  0.250-
   4  0.003  0.250  0.250-
   5  0.000  0.000  0.500-
   6  0.250  0.250  0.500-
   7  0.250  0.000  0.750-
   8  0.000  0.250  0.750-
   9  0.000  0.500  0.000-
  10  0.250  0.750  0.000-
  11  0.250  0.500  0.250-
  12  0.000  0.750  0.250-
  13  0.000  0.500  0.500-
  14  0.250  0.750  0.500-
  15  0.250  0.500  0.750-
  16  0.000  0.750  0.750-
  17  0.500  0.000  0.000-
  18  0.750  0.250  0.000-
  19  0.750  0.000  0.250-
  20  0.500  0.250  0.250-
  21  0.500  0.000  0.500-
  22  0.750  0.250  0.500-
  23  0.750  0.000  0.750-
  24  0.500  0.250  0.750-
  25  0.500  0.500  0.000-
  26  0.750  0.750  0.000-
  27  0.750  0.500  0.250-
  28  0.500  0.750  0.250-
  29  0.500  0.500  0.500-
  30  0.750  0.750  0.500-
  31  0.750  0.500  0.750-
  32  0.500  0.750  0.750-
  33  0.250  0.250  0.250-
  34  0.000  0.000  0.250-
  35  0.000  0.250  0.000-
  36  0.250  0.000  0.000-
  37  0.250  0.250  0.750-
  38  0.000  0.000  0.750-
  39  0.000  0.250  0.500-
  40  0.250  0.000  0.500-
  41  0.250  0.750  0.250-
  42  0.000  0.500  0.250-
  43  0.000  0.750  0.000-
  44  0.250  0.500  0.000-
  45  0.250  0.750  0.750-
  46  0.000  0.500  0.750-
  47  0.000  0.750  0.500-
  48  0.250  0.500  0.500-
  49  0.750  0.250  0.250-
  50  0.500  0.000  0.250-
  51  0.500  0.250  0.000-
  52  0.750  0.000  0.000-
  53  0.750  0.250  0.750-
  54  0.500  0.000  0.750-
  55  0.500  0.250  0.500-
  56  0.750  0.000  0.500-
  57  0.750  0.750  0.250-
  58  0.500  0.500  0.250-
  59  0.500  0.750  0.000-
  60  0.750  0.500  0.000-
  61  0.750  0.750  0.750-
  62  0.500  0.500  0.750-
  63  0.500  0.750  0.500-
  64  0.750  0.500  0.500-
 
  LATTYP: Found a simple cubic cell.
 ALAT       =    11.2040023600
  
  Lattice vectors:
  
 A1 = (  11.2040023600,   0.0000000000,   0.0000000000)
 A2 = (   0.0000000000,  11.2040023600,   0.0000000000)
 A3 = (   0.0000000000,   0.0000000000,  11.2040023600)


Analysis of symmetry for initial positions (statically):
=====================================================================
 Subroutine PRICEL returns:
 Original cell was already a primitive cell.
 

 Routine SETGRP: Setting up the symmetry group for a 
 simple cubic supercell.


 Subroutine GETGRP returns: Found  4 space group operations
 (whereof  2 operations were pure point group operations)
 out of a pool of 48 trial point group operations.


The static configuration has the point symmetry C_1h.
 The point group associated with its full space group is C_2v.


Analysis of symmetry for dynamics (positions and initial velocities):
=====================================================================
 Subroutine PRICEL returns:
 Original cell was already a primitive cell.
 

 Routine SETGRP: Setting up the symmetry group for a 
 simple cubic supercell.


 Subroutine GETGRP returns: Found  4 space group operations
 (whereof  2 operations were pure point group operations)
 out of a pool of 48 trial point group operations.


The dynamic configuration has the point symmetry C_1h.
 The point group associated with its full space group is C_2v.


 Subroutine INISYM returns: Found  4 space group operations
 (whereof  2 operations are pure point group operations),
 and found     1 'primitive' translations


----------------------------------------------------------------------------------------

                                     Primitive cell                                     

  volume of cell :    1406.4347

  direct lattice vectors                    reciprocal lattice vectors
    11.204002360  0.000000000  0.000000000     0.089253819  0.000000000  0.000000000
     0.000000000 11.204002360  0.000000000     0.000000000  0.089253819  0.000000000
     0.000000000  0.000000000 11.204002360     0.000000000  0.000000000  0.089253819

  length of vectors
    11.204002360 11.204002360 11.204002360     0.089253819  0.089253819  0.089253819

  position of ions in fractional coordinates (direct lattice)
     0.002677615  0.000000000  0.000000000
     0.250000000  0.250000000  0.000000000
     0.250000000  0.000000000  0.250000000
     0.002677615  0.250000000  0.250000000
     0.000000000  0.000000000  0.500000000
     0.250000000  0.250000000  0.500000000
     0.250000000  0.000000000  0.750000000
     0.000000000  0.250000000  0.750000000
     0.000000000  0.500000000  0.000000000
     0.250000000  0.750000000  0.000000000
     0.250000000  0.500000000  0.250000000
     0.000000000  0.750000000  0.250000000
     0.000000000  0.500000000  0.500000000
     0.250000000  0.750000000  0.500000000
     0.250000000  0.500000000  0.750000000
     0.000000000  0.750000000  0.750000000
     0.500000000  0.000000000  0.000000000
     0.750000000  0.250000000  0.000000000
     0.750000000  0.000000000  0.250000000
     0.500000000  0.250000000  0.250000000
     0.500000000  0.000000000  0.500000000
     0.750000000  0.250000000  0.500000000
     0.750000000  0.000000000  0.750000000
     0.500000000  0.250000000  0.750000000
     0.500000000  0.500000000  0.000000000
     0.750000000  0.750000000  0.000000000
     0.750000000  0.500000000  0.250000000
     0.500000000  0.750000000  0.250000000
     0.500000000  0.500000000  0.500000000
     0.750000000  0.750000000  0.500000000
     0.750000000  0.500000000  0.750000000
     0.500000000  0.750000000  0.750000000
     0.250000000  0.250000000  0.250000000
     0.000000000  0.000000000  0.250000000
     0.000000000  0.250000000  0.000000000
     0.250000000  0.000000000  0.000000000
     0.250000000  0.250000000  0.750000000
     0.000000000  0.000000000  0.750000000
     0.000000000  0.250000000  0.500000000
     0.250000000  0.000000000  0.500000000
     0.250000000  0.750000000  0.250000000
     0.000000000  0.500000000  0.250000000
     0.000000000  0.750000000  0.000000000
     0.250000000  0.500000000  0.000000000
     0.250000000  0.750000000  0.750000000
     0.000000000  0.500000000  0.750000000
     0.000000000  0.750000000  0.500000000
     0.250000000  0.500000000  0.500000000
     0.750000000  0.250000000  0.250000000
     0.500000000  0.000000000  0.250000000
     0.500000000  0.250000000  0.000000000
     0.750000000  0.000000000  0.000000000
     0.750000000  0.250000000  0.750000000
     0.500000000  0.000000000  0.750000000
     0.500000000  0.250000000  0.500000000
     0.750000000  0.000000000  0.500000000
     0.750000000  0.750000000  0.250000000
     0.500000000  0.500000000  0.250000000
     0.500000000  0.750000000  0.000000000
     0.750000000  0.500000000  0.000000000
     0.750000000  0.750000000  0.750000000
     0.500000000  0.500000000  0.750000000
     0.500000000  0.750000000  0.500000000
     0.750000000  0.500000000  0.500000000

  ion indices of the primitive-cell ions
   primitive index   ion index
                 1           1
                 2           2
                 3           3
                 4           4
                 5           5
                 6           6
                 7           7
                 8           8
                 9           9
                10          10
                11          11
                12          12
                13          13
                14          14
                15          15
                16          16
                17          17
                18          18
                19          19
                20          20
                21          21
                22          22
                23          23
                24          24
                25          25
                26          26
                27          27
                28          28
                29          29
                30          30
                31          31
                32          32
                33          33
                34          34
                35          35
                36          36
                37          37
                38          38
                39          39
                40          40
                41          41
                42          42
                43          43
                44          44
                45          45
                46          46
                47          47
                48          48
                49          49
                50          50
                51          51
                52          52
                53          53
                54          54
                55          55
                56          56
                57          57
                58          58
                59          59
                60          60
                61          61
                62          62
                63          63
                64          64

----------------------------------------------------------------------------------------

 
 
 KPOINTS: KPOINTS created by Atomic Simulation Env

Automatic generation of k-mesh.
 Grid dimensions read from file:
 generate k-points for:    2    2    2

 Generating k-lattice:

  Cartesian coordinates                     Fractional coordinates (reciprocal lattice)
     0.044626910  0.000000000  0.000000000     0.500000000  0.000000000  0.000000000
     0.000000000  0.044626910  0.000000000     0.000000000  0.500000000  0.000000000
     0.000000000  0.000000000  0.044626910     0.000000000  0.000000000  0.500000000

  Length of vectors
     0.044626910  0.044626910  0.044626910

  Shift w.r.t. Gamma in fractional coordinates (k-lattice)
     0.000000000  0.000000000  0.000000000

 
 Subroutine IBZKPT returns following result:
 ===========================================
 
 Found      6 irreducible k-points:
 
 Following reciprocal coordinates:
            Coordinates               Weight
  0.000000  0.000000  0.000000      1.000000
  0.500000  0.000000  0.000000      1.000000
  0.000000  0.500000  0.000000      2.000000
  0.500000  0.500000  0.000000      2.000000
  0.000000  0.500000  0.500000      1.000000
  0.500000  0.500000  0.500000      1.000000
 
 Following cartesian coordinates:
            Coordinates               Weight
  0.000000  0.000000  0.000000      1.000000
  0.044627  0.000000  0.000000      1.000000
  0.000000  0.044627  0.000000      2.000000
  0.044627  0.044627  0.000000      2.000000
  0.000000  0.044627  0.044627      1.000000
  0.044627  0.044627  0.044627      1.000000
 


--------------------------------------------------------------------------------------------------------




 Dimension of arrays:
   k-points           NKPTS =      6   k-points in BZ     NKDIM =      6   number of bands    NBANDS=    288
   number of dos      NEDOS =    301   number of ions     NIONS =     64
   non local maximal  LDIM  =      4   non local SUM 2l+1 LMDIM =      8
   total plane-waves  NPLWV = 343000
   max r-space proj   IRMAX =      1   max aug-charges    IRDMAX=  56280
   dimension x,y,z NGX =    70 NGY =   70 NGZ =   70
   dimension x,y,z NGXF=   140 NGYF=  140 NGZF=  140
   support grid    NGXF=   280 NGYF=  280 NGZF=  280
   ions per type =              32  32
   NGX,Y,Z   is equivalent  to a cutoff of  10.39, 10.39, 10.39 a.u.
   NGXF,Y,Z  is equivalent  to a cutoff of  20.77, 20.77, 20.77 a.u.

 SYSTEM =  unknown system                          
 POSCAR =  Na Cl                                   

 Startparameter for this run:
   NWRITE =      2    write-flag & timer
   PREC   = accura    normal or accurate (medium, high low for compatibility)
   ISTART =      0    job   : 0-new  1-cont  2-samecut
   ICHARG =      2    charge: 1-file 2-atom 10-const
   ISPIN  =      1    spin polarized calculation?
   LNONCOLLINEAR =      F non collinear calculations
   LSORBIT =      F    spin-orbit coupling
   INIWAV =      1    electr: 0-lowe 1-rand  2-diag
   LASPH  =      F    aspherical Exc in radial PAW
 Electronic Relaxation 1
   ENCUT  =  341.2 eV  25.08 Ry    5.01 a.u.  16.87 16.87 16.87*2*pi/ulx,y,z
   ENINI  =  341.2     initial cutoff
   ENAUG  =  368.1 eV  augmentation charge cutoff
   NELM   =     60;   NELMIN=  5; NELMDL= -5     # of ELM steps 
   EDIFF  = 0.1E-07   stopping-criterion for ELM
   LREAL  =      F    real-space projection
   NLSPLINE    = F    spline interpolate recip. space projectors
   LCOMPAT=      F    compatible to vasp.4.4
   GGA_COMPAT  = T    GGA compatible to vasp.4.4-vasp.4.6
   LMAXPAW     = -100 max onsite density
   LMAXMIX     =    2 max onsite mixed and CHGCAR
   VOSKOWN=      0    Vosko Wilk Nusair interpolation
   ROPT   =    0.00000   0.00000
 Ionic relaxation
   EDIFFG = 0.1E-06   stopping-criterion for IOM
   NSW    =      0    number of steps for IOM
   NBLOCK =      1;   KBLOCK =      1    inner block; outer block 
   IBRION =     -1    ionic relax: 0-MD 1-quasi-New 2-CG
   NFREE  =      0    steps in history (QN), initial steepest desc. (CG)
   ISIF   =      2    stress and relaxation
   IWAVPR =     10    prediction:  0-non 1-charg 2-wave 3-comb
   ISYM   =      2    0-nonsym 1-usesym 2-fastsym
   LCORR  =      T    Harris-Foulkes like correction to forces

   POTIM  = 0.5000    time-step for ionic-motion
   TEIN   =    0.0    initial temperature
   TEBEG  =    0.0;   TEEND  =   0.0 temperature during run
   SMASS  =  -3.00    Nose mass-parameter (am)
   estimated Nose-frequenzy (Omega)   =  0.10E-29 period in steps = 0.13E+47 mass=  -0.287E-26a.u.
   SCALEE = 1.0000    scale energy and forces
   NPACO  =    256;   APACO  = 10.0  distance and # of slots for P.C.
   PSTRESS=    0.0 pullay stress

  Mass of Ions in am
   POMASS =  22.99 35.45
  Ionic Valenz
   ZVAL   =   7.00  7.00
  Atomic Wigner-Seitz radii
   RWIGS  =  -1.00 -1.00
  virtual crystal weights 
   VCA    =   1.00  1.00
   NELECT =     448.0000    total number of electrons
   NUPDOWN=      -1.0000    fix difference up-down

 DOS related values:
   EMIN   =  10.00;   EMAX   =-10.00  energy-range for DOS
   EFERMI =   0.00
   ISMEAR =     0;   SIGMA  =   0.02  broadening in eV -4-tet -1-fermi 0-gaus

 Electronic relaxation 2 (details)
   IALGO  =     38    algorithm
   LDIAG  =      T    sub-space diagonalisation (order eigenvalues)
   LSUBROT=      F    optimize rotation matrix (better conditioning)
   TURBO    =      0    0=normal 1=particle mesh
   IRESTART =      0    0=no restart 2=restart with 2 vectors
   NREBOOT  =      0    no. of reboots
   NMIN     =      0    reboot dimension
   EREF     =   0.00    reference energy to select bands
   IMIX   =      4    mixing-type and parameters
     AMIX     =   0.40;   BMIX     =  1.00
     AMIX_MAG =   1.60;   BMIX_MAG =  1.00
     AMIN     =   0.10
     WC   =   100.;   INIMIX=   1;  MIXPRE=   1;  MAXMIX= -45

 Intra band minimization:
   WEIMIN = 0.0000     energy-eigenvalue tresh-hold
   EBREAK =  0.87E-11  absolut break condition
   DEPER  =   0.30     relativ break condition  

   TIME   =   0.40     timestep for ELM

  volume/ion in A,a.u.               =      21.98       148.30
  Fermi-wavevector in a.u.,A,eV,Ry     =   1.118049  2.112807 17.007750  1.250034
  Thomas-Fermi vector in A             =   2.254677
 
 Write flags
   LWAVE        =      F    write WAVECAR
   LDOWNSAMPLE  =      F    k-point downsampling of WAVECAR
   LCHARG       =      F    write CHGCAR
   LVTOT        =      F    write LOCPOT, total local potential
   LVHAR        =      F    write LOCPOT, Hartree potential only
   LELF         =      F    write electronic localiz. function (ELF)
   LORBIT       =      0    0 simple, 1 ext, 2 COOP (PROOUT), +10 PAW based schemes


 Dipole corrections
   LMONO  =      F    monopole corrections only (constant potential shift)
   LDIPOL =      F    correct potential (dipole corrections)
   IDIPOL =      0    1-x, 2-y, 3-z, 4-all directions 
   EPSILON=  1.0000000 bulk dielectric constant

 Exchange correlation treatment:
   GGA     =    PS    GGA type
   LEXCH   =    14    internal setting for exchange type
   LIBXC   =     F    Libxc                    
   VOSKOWN =     0    Vosko Wilk Nusair interpolation
   LHFCALC =     F    Hartree Fock is set to
   LHFONE  =     F    Hartree Fock one center treatment
   AEXX    =    0.0000 exact exchange contribution

 Linear response parameters
   LEPSILON=     F    determine dielectric tensor
   LRPA    =     F    only Hartree local field effects (RPA)
   LNABLA  =     F    use nabla operator in PAW spheres
   LVEL    =     F    velocity operator in full k-point grid
   CSHIFT  =0.1000    complex shift for real part using Kramers Kronig
   OMEGAMAX=  -1.0    maximum frequency
   DEG_THRESHOLD= 0.2000000E-02 threshold for treating states as degnerate
   RTIME   =   -0.100 relaxation time in fs
  (WPLASMAI=    0.000 imaginary part of plasma frequency in eV, 0.658/RTIME)
   DFIELD  = 0.0000000 0.0000000 0.0000000 field for delta impulse in time
 
  Optional k-point grid parameters
   LKPOINTS_OPT  =     F    use optional k-point grid
   KPOINTS_OPT_MODE=     1    mode for optional k-point grid
 
 Orbital magnetization related:
   ORBITALMAG=     F  switch on orbital magnetization
   LCHIMAG   =     F  perturbation theory with respect to B field
   DQ        =  0.001000  dq finite difference perturbation B field
   LLRAUG    =     F  two centre corrections for induced B field



--------------------------------------------------------------------------------------------------------


 Static calculation
 charge density and potential will be updated during run
 non-spin polarized calculation
 Variant of blocked Davidson
 Davidson routine will perform the subspace rotation
 perform sub-space diagonalisation
    after iterative eigenvector-optimisation
 modified Broyden-mixing scheme, WC =      100.0
 initial mixing is a Kerker type mixing with AMIX =  0.4000 and BMIX =      1.0000
 Hartree-type preconditioning will be used
 using additional bands           64
 reciprocal scheme for non local part
 use partial core corrections
 calculate Harris-corrections to forces 
   (improved forces if not selfconsistent)
 use gradient corrections 
 use of overlap-Matrix (Vanderbilt PP)
 Gauss-broadening in eV      SIGMA  =   0.02


--------------------------------------------------------------------------------------------------------


  energy-cutoff  :      341.21
  volume of cell :     1406.43
      direct lattice vectors                 reciprocal lattice vectors
    11.204002360  0.000000000  0.000000000     0.089253819  0.000000000  0.000000000
     0.000000000 11.204002360  0.000000000     0.000000000  0.089253819  0.000000000
     0.000000000  0.000000000 11.204002360     0.000000000  0.000000000  0.089253819

  length of vectors
    11.204002360 11.204002360 11.204002360     0.089253819  0.089253819  0.089253819


 
 k-points in units of 2pi/SCALE and weight: KPOINTS created by Atomic Simulation Env
   0.00000000  0.00000000  0.00000000       0.125
   0.04462691  0.00000000  0.00000000       0.125
   0.00000000  0.04462691  0.00000000       0.250
   0.04462691  0.04462691  0.00000000       0.250
   0.00000000  0.04462691  0.04462691       0.125
   0.04462691  0.04462691  0.04462691       0.125
 
 k-points in reciprocal lattice and weights: KPOINTS created by Atomic Simulation Env
   0.00000000  0.00000000  0.00000000       0.125
   0.50000000  0.00000000  0.00000000       0.125
   0.00000000  0.50000000  0.00000000       0.250
   0.50000000  0.50000000  0.00000000       0.250
   0.00000000  0.50000000  0.50000000       0.125
   0.50000000  0.50000000  0.50000000       0.125
 
 position of ions in fractional coordinates (direct lattice) 
   0.00267761  0.00000000  0.00000000
   0.25000000  0.25000000  0.00000000
   0.25000000  0.00000000  0.25000000
   0.00267761  0.25000000  0.25000000
   0.00000000  0.00000000  0.50000000
   0.25000000  0.25000000  0.50000000
   0.25000000  0.00000000  0.75000000
   0.00000000  0.25000000  0.75000000
   0.00000000  0.50000000  0.00000000
   0.25000000  0.75000000  0.00000000
   0.25000000  0.50000000  0.25000000
   0.00000000  0.75000000  0.25000000
   0.00000000  0.50000000  0.50000000
   0.25000000  0.75000000  0.50000000
   0.25000000  0.50000000  0.75000000
   0.00000000  0.75000000  0.75000000
   0.50000000  0.00000000  0.00000000
   0.75000000  0.25000000  0.00000000
   0.75000000  0.00000000  0.25000000
   0.50000000  0.25000000  0.25000000
   0.50000000  0.00000000  0.50000000
   0.75000000  0.25000000  0.50000000
   0.75000000  0.00000000  0.75000000
   0.50000000  0.25000000  0.75000000
   0.50000000  0.50000000  0.00000000
   0.75000000  0.75000000  0.00000000
   0.75000000  0.50000000  0.25000000
   0.50000000  0.75000000  0.25000000
   0.50000000  0.50000000  0.50000000
   0.75000000  0.75000000  0.50000000
   0.75000000  0.50000000  0.75000000
   0.50000000  0.75000000  0.75000000
   0.25000000  0.25000000  0.25000000
   0.00000000  0.00000000  0.25000000
   0.00000000  0.25000000  0.00000000
   0.25000000  0.00000000  0.00000000
   0.25000000  0.25000000  0.75000000
   0.00000000  0.00000000  0.75000000
   0.00000000  0.25000000  0.50000000
   0.25000000  0.00000000  0.50000000
   0.25000000  0.75000000  0.25000000
   0.00000000  0.50000000  0.25000000
   0.00000000  0.75000000  0.00000000
   0.25000000  0.50000000  0.00000000
   0.25000000  0.75000000  0.75000000
   0.00000000  0.50000000  0.75000000
   0.00000000  0.75000000  0.50000000
   0.25000000  0.50000000  0.50000000
   0.75000000  0.25000000  0.25000000
   0.50000000  0.00000000  0.25000000
   0.50000000  0.25000000  0.00000000
   0.75000000  0.00000000  0.00000000
   0.75000000  0.25000000  0.75000000
   0.50000000  0.00000000  0.75000000
   0.50000000  0.25000000  0.50000000
   0.75000000  0.00000000  0.50000000
   0.75000000  0.75000000  0.25000000
   0.50000000  0.50000000  0.25000000
   0.50000000  0.75000000  0.00000000
   0.75000000  0.50000000  0.00000000
   0.75000000  0.75000000  0.75000000
   0.50000000  0.50000000  0.75000000
   0.50000000  0.75000000  0.50000000
   0.75000000  0.50000000  0.50000000
 
 position of ions in cartesian coordinates  (Angst):
   0.03000000  0.00000000  0.00000000
   2.80100059  2.80100059  0.00000000
   2.80100059  0.00000000  2.80100059
   0.03000000  2.80100059  2.80100059
   0.00000000  0.00000000  5.60200118
   2.80100059  2.80100059  5.60200118
   2.80100059  0.00000000  8.40300177
   0.00000000  2.80100059  8.40300177
   0.00000000  5.60200118  0.00000000
   2.80100059  8.40300177  0.00000000
   2.80100059  5.60200118  2.80100059
   0.00000000  8.40300177  2.80100059
   0.00000000  5.60200118  5.60200118
   2.80100059  8.40300177  5.60200118
   2.80100059  5.60200118  8.40300177
   0.00000000  8.40300177  8.40300177
   5.60200118  0.00000000  0.00000000
   8.40300177  2.80100059  0.00000000
   8.40300177  0.00000000  2.80100059
   5.60200118  2.80100059  2.80100059
   5.60200118  0.00000000  5.60200118
   8.40300177  2.80100059  5.60200118
   8.40300177  0.00000000  8.40300177
   5.60200118  2.80100059  8.40300177
   5.60200118  5.60200118  0.00000000
   8.40300177  8.40300177  0.00000000
   8.40300177  5.60200118  2.80100059
   5.60200118  8.40300177  2.80100059
   5.60200118  5.60200118  5.60200118
   8.40300177  8.40300177  5.60200118
   8.40300177  5.60200118  8.40300177
   5.60200118  8.40300177  8.40300177
   2.80100059  2.80100059  2.80100059
   0.00000000  0.00000000  2.80100059
   0.00000000  2.80100059  0.00000000
   2.80100059  0.00000000  0.00000000
   2.80100059  2.80100059  8.40300177
   0.00000000  0.00000000  8.40300177
   0.00000000  2.80100059  5.60200118
   2.80100059  0.00000000  5.60200118
   2.80100059  8.40300177  2.80100059
   0.00000000  5.60200118  2.80100059
   0.00000000  8.40300177  0.00000000
   2.80100059  5.60200118  0.00000000
   2.80100059  8.40300177  8.40300177
   0.00000000  5.60200118  8.40300177
   0.00000000  8.40300177  5.60200118
   2.80100059  5.60200118  5.60200118
   8.40300177  2.80100059  2.80100059
   5.60200118  0.00000000  2.80100059
   5.60200118  2.80100059  0.00000000
   8.40300177  0.00000000  0.00000000
   8.40300177  2.80100059  8.40300177
   5.60200118  0.00000000  8.40300177
   5.60200118  2.80100059  5.60200118
   8.40300177  0.00000000  5.60200118
   8.40300177  8.40300177  2.80100059
   5.60200118  5.60200118  2.80100059
   5.60200118  8.40300177  0.00000000
   8.40300177  5.60200118  0.00000000
   8.40300177  8.40300177  8.40300177
   5.60200118  5.60200118  8.40300177
   5.60200118  8.40300177  5.60200118
   8.40300177  5.60200118  5.60200118
 


--------------------------------------------------------------------------------------------------------


 k-point   1 :   0.0000 0.0000 0.0000  plane waves:   20005
 k-point   2 :   0.5000 0.0000 0.0000  plane waves:   20138
 k-point   3 :   0.0000 0.5000 0.0000  plane waves:   20138
 k-point   4 :   0.5000 0.5000 0.0000  plane waves:   20160
 k-point   5 :   0.0000 0.5000 0.5000  plane waves:   20160
 k-point   6 :   0.5000 0.5000 0.5000  plane waves:   20336

 maximum and minimum number of plane-waves per node :     20336    20005

 maximum number of plane-waves:     20336
 maximum index in each direction: 
   IXMAX=   16   IYMAX=   16   IZMAX=   16
   IXMIN=  -17   IYMIN=  -17   IZMIN=  -17


 serial   3D FFT for wavefunctions
 parallel 3D FFT for charge:
    minimum data exchange during FFTs selected (reduces bandwidth)


 total amount of memory used by VASP MPI-rank0   118439. kBytes
=======================================================================

   base      :      30000. kBytes
   nonl-proj :      36470. kBytes
   fftplans  :      14405. kBytes
   grid      :      19342. kBytes
   one-center:        196. kBytes
   wavefun   :      18026. kBytes
 
     INWAV:  cpu time      0.0000: real time      0.0000
 Broyden mixing: mesh for mixing (old mesh)
   NGX = 33   NGY = 33   NGZ = 33
  (NGX  =140   NGY  =140   NGZ  =140)
  gives a total of  35937 points

 initial charge density was supplied:
 charge density of overlapping atoms calculated
 number of electron     448.0000000 magnetization 
 keeping initial charge density in first step


--------------------------------------------------------------------------------------------------------


 Maximum index for augmentation-charges         1834 (set IRDMAX)


--------------------------------------------------------------------------------------------------------


 First call to EWALD:  gamma=   0.158
 Maximum number of real-space cells 3x 3x 3
 Maximum number of reciprocal cells 3x 3x 3

    FEWALD:  cpu time      0.0014: real time      0.0015


--------------------------------------- Iteration      1(   1)  ---------------------------------------


    POTLOK:  cpu time      0.0417: real time      0.0423
    SETDIJ:  cpu time      0.0321: real time      0.0323
     EDDAV:  cpu time      7.2374: real time      7.2793
       DOS:  cpu time      0.0010: real time      0.0010
    --------------------------------------------
      LOOP:  cpu time      7.3122: real time      7.3549

 eigenvalue-minimisations  :  3456
 total energy-change (2. order) : 0.4316218E+04  (-0.1718293E+05)
 number of electron     448.0000000 magnetization 
 augmentation part      448.0000000 magnetization 

 Free energy of the ion-electron system (eV)
  ---------------------------------------------------
  alpha Z        PSCENC =       751.52672365
  Ewald energy   TEWEN  =    -22871.33099671
  -Hartree energ DENC   =     -8992.25369987
  -exchange      EXHF   =         0.00000000
  -V(xc)+E(xc)   XCENC  =      1456.53424261
  PAW double counting   =     26466.43774078   -29286.08056155
  entropy T*S    EENTRO =        -0.00373817
  eigenvalues    EBANDS =      -740.79112612
  atomic energy  EATOM  =     37532.17946992
  Solvation  Ediel_sol  =         0.00000000
  ---------------------------------------------------
  free energy    TOTEN  =      4316.21805454 eV

  energy without entropy =     4316.22179272  energy(sigma->0) =     4316.21992363


--------------------------------------------------------------------------------------------------------




--------------------------------------- Iteration      1(   2)  ---------------------------------------


     EDDAV:  cpu time      7.8707: real time      7.9166
       DOS:  cpu time      0.0002: real time      0.0002
    --------------------------------------------
      LOOP:  cpu time      7.8709: real time      7.9168

 eigenvalue-minimisations  :  3840
 total energy-change (2. order) :-0.3953200E+04  (-0.3762113E+04)
 number of electron     448.0000000 magnetization 
 augmentation part      448.0000000 magnetization 

 Free energy of the ion-electron system (eV)
  ---------------------------------------------------
  alpha Z        PSCENC =       751.52672365
  Ewald energy   TEWEN  =    -22871.33099671
  -Hartree energ DENC   =     -8992.25369987
  -exchange      EXHF   =         0.00000000
  -V(xc)+E(xc)   XCENC  =      1456.53424261
  PAW double counting   =     26466.43774078   -29286.08056155
  entropy T*S    EENTRO =        -0.00000000
  eigenvalues    EBANDS =     -4693.99500330
  atomic energy  EATOM  =     37532.17946992
  Solvation  Ediel_sol  =         0.00000000
  ---------------------------------------------------
  free energy    TOTEN  =       363.01791554 eV

  energy without entropy =      363.01791554  energy(sigma->0) =      363.01791554


--------------------------------------------------------------------------------------------------------




--------------------------------------- Iteration      1(   3)  ---------------------------------------


     EDDAV:  cpu time      8.4701: real time      8.5188
       DOS:  cpu time      0.0003: real time      0.0003
    --------------------------------------------
      LOOP:  cpu time      8.4704: real time      8.5191

 eigenvalue-minimisations  :  4192
 total energy-change (2. order) :-0.5692607E+03  (-0.5650027E+03)
 number of electron     448.0000000 magnetization 
 augmentation part      448.0000000 magnetization 

 Free energy of the ion-electron system (eV)
  ---------------------------------------------------
  alpha Z        PSCENC =       751.52672365
  Ewald energy   TEWEN  =    -22871.33099671
  -Hartree energ DENC   =     -8992.25369987
  -exchange      EXHF   =         0.00000000
  -V(xc)+E(xc)   XCENC  =      1456.53424261
  PAW double counting   =     26466.43774078   -29286.08056155
  entropy T*S    EENTRO =        -0.00000000
  eigenvalues    EBANDS =     -5263.25571356
  atomic energy  EATOM  =     37532.17946992
  Solvation  Ediel_sol  =         0.00000000
  ---------------------------------------------------
  free energy    TOTEN  =      -206.24279472 eV

  energy without entropy =     -206.24279472  energy(sigma->0) =     -206.24279472


--------------------------------------------------------------------------------------------------------




--------------------------------------- Iteration      1(   4)  ---------------------------------------


     EDDAV:  cpu time      8.4224: real time      8.4723
       DOS:  cpu time      0.0003: real time      0.0003
    --------------------------------------------
      LOOP:  cpu time      8.4226: real time      8.4726

 eigenvalue-minimisations  :  4160
 total energy-change (2. order) :-0.2195180E+02  (-0.2185032E+02)
 number of electron     448.0000000 magnetization 
 augmentation part      448.0000000 magnetization 

 Free energy of the ion-electron system (eV)
  ---------------------------------------------------
  alpha Z        PSCENC =       751.52672365
  Ewald energy   TEWEN  =    -22871.33099671
  -Hartree energ DENC   =     -8992.25369987
  -exchange      EXHF   =         0.00000000
  -V(xc)+E(xc)   XCENC  =      1456.53424261
  PAW double counting   =     26466.43774078   -29286.08056155
  entropy T*S    EENTRO =        -0.00000000
  eigenvalues    EBANDS =     -5285.20750958
  atomic energy  EATOM  =     37532.17946992
  Solvation  Ediel_sol  =         0.00000000
  ---------------------------------------------------
  free energy    TOTEN  =      -228.19459074 eV

  energy without entropy =     -228.19459074  energy(sigma->0) =     -228.19459074


--------------------------------------------------------------------------------------------------------




--------------------------------------- Iteration      1(   5)  ---------------------------------------


     EDDAV:  cpu time      8.5145: real time      8.5680
       DOS:  cpu time      0.0002: real time      0.0002
    CHARGE:  cpu time      0.2715: real time      0.2730
    MIXING:  cpu time      0.0015: real time      0.0015
    --------------------------------------------
      LOOP:  cpu time      8.7878: real time      8.8427

 eigenvalue-minimisations  :  4224
 total energy-change (2. order) :-0.8105833E+00  (-0.8092791E+00)
 number of electron     448.0000022 magnetization 
 augmentation part      111.6509369 magnetization 

 Broyden mixing:
  rms(total) = 0.10608E+01    rms(broyden)= 0.10603E+01
  rms(prec ) = 0.14940E+01
  weight for this iteration     100.00

 Free energy of the ion-electron system (eV)
  ---------------------------------------------------
  alpha Z        PSCENC =       751.52672365
  Ewald energy   TEWEN  =    -22871.33099671
  -Hartree energ DENC   =     -8992.25369987
  -exchange      EXHF   =         0.00000000
  -V(xc)+E(xc)   XCENC  =      1456.53424261
  PAW double counting   =     26466.43774078   -29286.08056155
  entropy T*S    EENTRO =        -0.00000000
  eigenvalues    EBANDS =     -5286.01809293
  atomic energy  EATOM  =     37532.17946992
  Solvation  Ediel_sol  =         0.00000000
  ---------------------------------------------------
  free energy    TOTEN  =      -229.00517409 eV

  energy without entropy =     -229.00517409  energy(sigma->0) =     -229.00517409


--------------------------------------------------------------------------------------------------------




--------------------------------------- Iteration      1(   6)  ---------------------------------------


    POTLOK:  cpu time      0.0366: real time      0.0374
    SETDIJ:  cpu time      0.0298: real time      0.0300
     EDDAV:  cpu time      8.5745: real time      8.6244
       DOS:  cpu time      0.0002: real time      0.0002
    CHARGE:  cpu time      0.2701: real time      0.2715
    MIXING:  cpu time      0.0010: real time      0.0010
    --------------------------------------------
      LOOP:  cpu time      8.9123: real time      8.9646

 eigenvalue-minimisations  :  4256
 total energy-change (2. order) : 0.4867297E+01  (-0.9499323E+00)
 number of electron     448.0000022 magnetization 
 augmentation part      112.4557391 magnetization 

 Broyden mixing:
  rms(total) = 0.77642E+00    rms(broyden)= 0.77637E+00
  rms(prec ) = 0.89227E+00
  weight for this iteration     100.00

 eigenvalues of (default mixing * dielectric matrix)
  average eigenvalue GAMMA=   1.0710
  1.0710

 Free energy of the ion-electron system (eV)
  ---------------------------------------------------
  alpha Z        PSCENC =       751.52672365
  Ewald energy   TEWEN  =    -22871.33099671
  -Hartree energ DENC   =     -9062.00652925
  -exchange      EXHF   =         0.00000000
  -V(xc)+E(xc)   XCENC  =      1465.44739317
  PAW double counting   =     27290.38219801   -30102.51062257
  entropy T*S    EENTRO =        -0.00000000
  eigenvalues    EBANDS =     -5227.82551284
  atomic energy  EATOM  =     37532.17946992
  Solvation  Ediel_sol  =         0.00000000
  ---------------------------------------------------
  free energy    TOTEN  =      -224.13787660 eV

  energy without entropy =     -224.13787660  energy(sigma->0) =     -224.13787660


--------------------------------------------------------------------------------------------------------




--------------------------------------- Iteration      1(   7)  ---------------------------------------


    POTLOK:  cpu time      0.0361: real time      0.0363
    SETDIJ:  cpu time      0.0300: real time      0.0302
     EDDAV:  cpu time      9.3100: real time      9.3629
       DOS:  cpu time      0.0002: real time      0.0002
    CHARGE:  cpu time      0.2717: real time      0.2736
    MIXING:  cpu time      0.0012: real time      0.0012
    --------------------------------------------
      LOOP:  cpu time      9.6492: real time      9.7044

 eigenvalue-minimisations  :  4704
 total energy-change (2. order) : 0.3605152E+00  (-0.2051865E+00)
 number of electron     448.0000022 magnetization 
 augmentation part      112.8259482 magnetization 

 Broyden mixing:
  rms(total) = 0.53351E+00    rms(broyden)= 0.53348E+00
  rms(prec ) = 0.56359E+00
  weight for this iteration     100.00

 eigenvalues of (default mixing * dielectric matrix)
  average eigenvalue GAMMA=   2.1513
  1.4363  2.8662

 Free energy of the ion-electron system (eV)
  ---------------------------------------------------
  alpha Z        PSCENC =       751.52672365
  Ewald energy   TEWEN  =    -22871.33099671
  -Hartree energ DENC   =     -9085.82216324
  -exchange      EXHF   =         0.00000000
  -V(xc)+E(xc)   XCENC  =      1470.11833090
  PAW double counting   =     28327.75823391   -31140.48593776
  entropy T*S    EENTRO =        -0.00000000
  eigenvalues    EBANDS =     -5207.72102212
  atomic energy  EATOM  =     37532.17946992
  Solvation  Ediel_sol  =         0.00000000
  ---------------------------------------------------
  free energy    TOTEN  =      -223.77736144 eV

  energy without entropy =     -223.77736144  energy(sigma->0) =     -223.77736144


--------------------------------------------------------------------------------------------------------




--------------------------------------- Iteration      1(   8)  ---------------------------------------


    POTLOK:  cpu time      0.0359: real time      0.0371
    SETDIJ:  cpu time      0.0298: real time      0.0299
     EDDAV:  cpu time      8.1648: real time      8.2114
       DOS:  cpu time      0.0002: real time      0.0002
    CHARGE:  cpu time      0.2665: real time      0.2679
    MIXING:  cpu time      0.0017: real time      0.0017
    --------------------------------------------
      LOOP:  cpu time      8.4989: real time      8.5482

 eigenvalue-minimisations  :  4000
 total energy-change (2. order) :-0.1250701E+00  (-0.2655997E-01)
 number of electron     448.0000022 magnetization 
 augmentation part      112.8101582 magnetization 

 Broyden mixing:
  rms(total) = 0.14006E+00    rms(broyden)= 0.14006E+00
  rms(prec ) = 0.14285E+00
  weight for this iteration     100.00

 eigenvalues of (default mixing * dielectric matrix)
  average eigenvalue GAMMA=   1.5560
  2.5181  1.3830  0.7670

 Free energy of the ion-electron system (eV)
  ---------------------------------------------------
  alpha Z        PSCENC =       751.52672365
  Ewald energy   TEWEN  =    -22871.33099671
  -Hartree energ DENC   =     -9075.33326325
  -exchange      EXHF   =         0.00000000
  -V(xc)+E(xc)   XCENC  =      1472.34465314
  PAW double counting   =     29806.76747630   -32626.55700607
  entropy T*S    EENTRO =        -0.00000000
  eigenvalues    EBANDS =     -5213.49948857
  atomic energy  EATOM  =     37532.17946992
  Solvation  Ediel_sol  =         0.00000000
  ---------------------------------------------------
  free energy    TOTEN  =      -223.90243158 eV

  energy without entropy =     -223.90243158  energy(sigma->0) =     -223.90243158


--------------------------------------------------------------------------------------------------------




--------------------------------------- Iteration      1(   9)  ---------------------------------------


    POTLOK:  cpu time      0.0357: real time      0.0360
    SETDIJ:  cpu time      0.0301: real time      0.0302
     EDDAV:  cpu time      8.5266: real time      8.5760
       DOS:  cpu time      0.0002: real time      0.0002
    CHARGE:  cpu time      0.2702: real time      0.2715
    MIXING:  cpu time      0.0017: real time      0.0017
    --------------------------------------------
      LOOP:  cpu time      8.8644: real time      8.9156

 eigenvalue-minimisations  :  4224
 total energy-change (2. order) : 0.5274184E-02  (-0.1140653E-02)
 number of electron     448.0000022 magnetization 
 augmentation part      112.8321291 magnetization 

 Broyden mixing:
  rms(total) = 0.58869E-01    rms(broyden)= 0.58868E-01
  rms(prec ) = 0.60920E-01
  weight for this iteration     100.00

 eigenvalues of (default mixing * dielectric matrix)
  average eigenvalue GAMMA=   2.0126
  2.9033  2.7624  0.9941  1.3906

 Free energy of the ion-electron system (eV)
  ---------------------------------------------------
  alpha Z        PSCENC =       751.52672365
  Ewald energy   TEWEN  =    -22871.33099671
  -Hartree energ DENC   =     -9078.01459125
  -exchange      EXHF   =         0.00000000
  -V(xc)+E(xc)   XCENC  =      1472.35952694
  PAW double counting   =     29628.04453075   -32447.00913795
  entropy T*S    EENTRO =        -0.00000000
  eigenvalues    EBANDS =     -5211.65268276
  atomic energy  EATOM  =     37532.17946992
  Solvation  Ediel_sol  =         0.00000000
  ---------------------------------------------------
  free energy    TOTEN  =      -223.89715740 eV

  energy without entropy =     -223.89715740  energy(sigma->0) =     -223.89715740


--------------------------------------------------------------------------------------------------------




--------------------------------------- Iteration      1(  10)  ---------------------------------------


    POTLOK:  cpu time      0.0356: real time      0.0359
    SETDIJ:  cpu time      0.0298: real time      0.0300
     EDDAV:  cpu time      8.1357: real time      8.1841
       DOS:  cpu time      0.0002: real time      0.0002
    CHARGE:  cpu time      0.2772: real time      0.2792
    MIXING:  cpu time      0.0022: real time      0.0022
    --------------------------------------------
      LOOP:  cpu time      8.4807: real time      8.5315

 eigenvalue-minimisations  :  3968
 total energy-change (2. order) :-0.4346758E-02  (-0.1772607E-02)
 number of electron     448.0000022 magnetization 
 augmentation part      112.8605853 magnetization 

 Broyden mixing:
  rms(total) = 0.28566E-01    rms(broyden)= 0.28563E-01
  rms(prec ) = 0.30513E-01
  weight for this iteration     100.00

 eigenvalues of (default mixing * dielectric matrix)
  average eigenvalue GAMMA=   1.7096
  2.9368  2.5152  1.3002  1.0168  0.7789

 Free energy of the ion-electron system (eV)
  ---------------------------------------------------
  alpha Z        PSCENC =       751.52672365
  Ewald energy   TEWEN  =    -22871.33099671
  -Hartree energ DENC   =     -9079.37443099
  -exchange      EXHF   =         0.00000000
  -V(xc)+E(xc)   XCENC  =      1472.60249439
  PAW double counting   =     29454.33872917   -32273.58240673
  entropy T*S    EENTRO =        -0.00000000
  eigenvalues    EBANDS =     -5210.26108685
  atomic energy  EATOM  =     37532.17946992
  Solvation  Ediel_sol  =         0.00000000
  ---------------------------------------------------
  free energy    TOTEN  =      -223.90150416 eV

  energy without entropy =     -223.90150416  energy(sigma->0) =     -223.90150416


--------------------------------------------------------------------------------------------------------




--------------------------------------- Iteration      1(  11)  ---------------------------------------


    POTLOK:  cpu time      0.0360: real time      0.0371
    SETDIJ:  cpu time      0.0301: real time      0.0303
     EDDAV:  cpu time      8.8768: real time      8.9282
       DOS:  cpu time      0.0004: real time      0.0004
    CHARGE:  cpu time      0.2681: real time      0.2695
    MIXING:  cpu time      0.0016: real time      0.0016
    --------------------------------------------
      LOOP:  cpu time      9.2131: real time      9.2671

 eigenvalue-minimisations  :  4448
 total energy-change (2. order) : 0.6996500E-03  (-0.1548764E-03)
 number of electron     448.0000022 magnetization 
 augmentation part      112.8513914 magnetization 

 Broyden mixing:
  rms(total) = 0.81199E-02    rms(broyden)= 0.81197E-02
  rms(prec ) = 0.85142E-02
  weight for this iteration     100.00

 eigenvalues of (default mixing * dielectric matrix)
  average eigenvalue GAMMA=   1.5913
  2.9030  2.4158  1.3213  1.0107  0.9487  0.9487

 Free energy of the ion-electron system (eV)
  ---------------------------------------------------
  alpha Z        PSCENC =       751.52672365
  Ewald energy   TEWEN  =    -22871.33099671
  -Hartree energ DENC   =     -9078.31090557
  -exchange      EXHF   =         0.00000000
  -V(xc)+E(xc)   XCENC  =      1472.52741115
  PAW double counting   =     29487.73964904   -32307.11996288
  entropy T*S    EENTRO =        -0.00000000
  eigenvalues    EBANDS =     -5211.11219312
  atomic energy  EATOM  =     37532.17946992
  Solvation  Ediel_sol  =         0.00000000
  ---------------------------------------------------
  free energy    TOTEN  =      -223.90080451 eV

  energy without entropy =     -223.90080451  energy(sigma->0) =     -223.90080451


--------------------------------------------------------------------------------------------------------




--------------------------------------- Iteration      1(  12)  ---------------------------------------


    POTLOK:  cpu time      0.0359: real time      0.0399
    SETDIJ:  cpu time      0.0299: real time      0.0300
     EDDAV:  cpu time      8.7751: real time      8.8263
       DOS:  cpu time      0.0005: real time      0.0005
    CHARGE:  cpu time      0.2676: real time      0.2689
    MIXING:  cpu time      0.0019: real time      0.0019
    --------------------------------------------
      LOOP:  cpu time      9.1109: real time      9.1676

 eigenvalue-minimisations  :  4384
 total energy-change (2. order) : 0.3781174E-04  (-0.1719690E-04)
 number of electron     448.0000022 magnetization 
 augmentation part      112.8482699 magnetization 

 Broyden mixing:
  rms(total) = 0.94751E-03    rms(broyden)= 0.94605E-03
  rms(prec ) = 0.10963E-02
  weight for this iteration     100.00

 eigenvalues of (default mixing * dielectric matrix)
  average eigenvalue GAMMA=   1.6757
  2.8974  2.5322  2.0439  1.1816  0.9137  1.0803  1.0803

 Free energy of the ion-electron system (eV)
  ---------------------------------------------------
  alpha Z        PSCENC =       751.52672365
  Ewald energy   TEWEN  =    -22871.33099671
  -Hartree energ DENC   =     -9078.13364106
  -exchange      EXHF   =         0.00000000
  -V(xc)+E(xc)   XCENC  =      1472.51456625
  PAW double counting   =     29500.66382560   -32320.04320463
  entropy T*S    EENTRO =        -0.00000000
  eigenvalues    EBANDS =     -5211.27750973
  atomic energy  EATOM  =     37532.17946992
  Solvation  Ediel_sol  =         0.00000000
  ---------------------------------------------------
  free energy    TOTEN  =      -223.90076670 eV

  energy without entropy =     -223.90076670  energy(sigma->0) =     -223.90076670


--------------------------------------------------------------------------------------------------------




--------------------------------------- Iteration      1(  13)  ---------------------------------------


    POTLOK:  cpu time      0.0359: real time      0.0366
    SETDIJ:  cpu time      0.0299: real time      0.0300
     EDDAV:  cpu time      8.7385: real time      8.7887
       DOS:  cpu time      0.0005: real time      0.0005
    CHARGE:  cpu time      0.2693: real time      0.2707
    MIXING:  cpu time      0.0015: real time      0.0015
    --------------------------------------------
      LOOP:  cpu time      9.0755: real time      9.1279

 eigenvalue-minimisations  :  4352
 total energy-change (2. order) :-0.8712959E-05  (-0.9563423E-06)
 number of electron     448.0000022 magnetization 
 augmentation part      112.8478350 magnetization 

 Broyden mixing:
  rms(total) = 0.28070E-03    rms(broyden)= 0.28035E-03
  rms(prec ) = 0.32214E-03
  weight for this iteration     100.00

 eigenvalues of (default mixing * dielectric matrix)
  average eigenvalue GAMMA=   1.6576
  2.9892  2.4314  2.4314  1.2793  0.9828  0.9828  1.0819  1.0819

 Free energy of the ion-electron system (eV)
  ---------------------------------------------------
  alpha Z        PSCENC =       751.52672365
  Ewald energy   TEWEN  =    -22871.33099671
  -Hartree energ DENC   =     -9078.11868252
  -exchange      EXHF   =         0.00000000
  -V(xc)+E(xc)   XCENC  =      1472.51079463
  PAW double counting   =     29497.72006214   -32317.09147282
  entropy T*S    EENTRO =        -0.00000000
  eigenvalues    EBANDS =     -5211.29667371
  atomic energy  EATOM  =     37532.17946992
  Solvation  Ediel_sol  =         0.00000000
  ---------------------------------------------------
  free energy    TOTEN  =      -223.90077541 eV

  energy without entropy =     -223.90077541  energy(sigma->0) =     -223.90077541


--------------------------------------------------------------------------------------------------------




--------------------------------------- Iteration      1(  14)  ---------------------------------------


    POTLOK:  cpu time      0.0356: real time      0.0359
    SETDIJ:  cpu time      0.0300: real time      0.0301
     EDDAV:  cpu time      9.1475: real time      9.2000
       DOS:  cpu time      0.0006: real time      0.0006
    CHARGE:  cpu time      0.2670: real time      0.2688
    MIXING:  cpu time      0.0018: real time      0.0018
    --------------------------------------------
      LOOP:  cpu time      9.4825: real time      9.5372

 eigenvalue-minimisations  :  4608
 total energy-change (2. order) : 0.4960020E-06  (-0.1328831E-06)
 number of electron     448.0000022 magnetization 
 augmentation part      112.8476773 magnetization 

 Broyden mixing:
  rms(total) = 0.77240E-03    rms(broyden)= 0.77236E-03
  rms(prec ) = 0.79499E-03
  weight for this iteration     100.00

 eigenvalues of (default mixing * dielectric matrix)
  average eigenvalue GAMMA=   1.6764
  3.0752  2.6151  2.6151  1.5603  1.2433  1.2433  0.9627  0.8862  0.8862

 Free energy of the ion-electron system (eV)
  ---------------------------------------------------
  alpha Z        PSCENC =       751.52672365
  Ewald energy   TEWEN  =    -22871.33099671
  -Hartree energ DENC   =     -9078.12869081
  -exchange      EXHF   =         0.00000000
  -V(xc)+E(xc)   XCENC  =      1472.51208247
  PAW double counting   =     29499.70808794   -32319.07648421
  entropy T*S    EENTRO =        -0.00000000
  eigenvalues    EBANDS =     -5211.29096718
  atomic energy  EATOM  =     37532.17946992
  Solvation  Ediel_sol  =         0.00000000
  ---------------------------------------------------
  free energy    TOTEN  =      -223.90077491 eV

  energy without entropy =     -223.90077491  energy(sigma->0) =     -223.90077491


--------------------------------------------------------------------------------------------------------




--------------------------------------- Iteration      1(  15)  ---------------------------------------


    POTLOK:  cpu time      0.0358: real time      0.0372
    SETDIJ:  cpu time      0.0302: real time      0.0303
     EDDAV:  cpu time      7.1784: real time      7.2201
       DOS:  cpu time      0.0004: real time      0.0004
    CHARGE:  cpu time      0.2679: real time      0.2693
    MIXING:  cpu time      0.0021: real time      0.0021
    --------------------------------------------
      LOOP:  cpu time      7.5147: real time      7.5594

 eigenvalue-minimisations  :  3392
 total energy-change (2. order) :-0.1119646E-05  (-0.5329518E-07)
 number of electron     448.0000022 magnetization 
 augmentation part      112.8478063 magnetization 

 Broyden mixing:
  rms(total) = 0.18568E-03    rms(broyden)= 0.18558E-03
  rms(prec ) = 0.19241E-03
  weight for this iteration     100.00

 eigenvalues of (default mixing * dielectric matrix)
  average eigenvalue GAMMA=   1.6511
  3.1164  2.8077  2.3253  1.7636  1.2542  1.2542  1.0750  1.0750  0.9198  0.9198

 Free energy of the ion-electron system (eV)
  ---------------------------------------------------
  alpha Z        PSCENC =       751.52672365
  Ewald energy   TEWEN  =    -22871.33099671
  -Hartree energ DENC   =     -9078.15673787
  -exchange      EXHF   =         0.00000000
  -V(xc)+E(xc)   XCENC  =      1472.51318016
  PAW double counting   =     29498.64957114   -32318.01545254
  entropy T*S    EENTRO =        -0.00000000
  eigenvalues    EBANDS =     -5211.26653378
  atomic energy  EATOM  =     37532.17946992
  Solvation  Ediel_sol  =         0.00000000
  ---------------------------------------------------
  free energy    TOTEN  =      -223.90077603 eV

  energy without entropy =     -223.90077603  energy(sigma->0) =     -223.90077603


--------------------------------------------------------------------------------------------------------




--------------------------------------- Iteration      1(  16)  ---------------------------------------


    POTLOK:  cpu time      0.0357: real time      0.0360
    SETDIJ:  cpu time      0.0300: real time      0.0301
     EDDAV:  cpu time      8.5202: real time      8.5694
       DOS:  cpu time      0.0004: real time      0.0004
    CHARGE:  cpu time      0.2686: real time      0.2700
    MIXING:  cpu time      0.0020: real time      0.0020
    --------------------------------------------
      LOOP:  cpu time      8.8570: real time      8.9080

 eigenvalue-minimisations  :  4224
 total energy-change (2. order) :-0.4299509E-06  (-0.6891757E-08)
 number of electron     448.0000022 magnetization 
 augmentation part      112.8478694 magnetization 

 Broyden mixing:
  rms(total) = 0.56573E-04    rms(broyden)= 0.56236E-04
  rms(prec ) = 0.60578E-04
  weight for this iteration     100.00

 eigenvalues of (default mixing * dielectric matrix)
  average eigenvalue GAMMA=   1.6272
  3.1615  2.8025  2.3103  1.7042  1.7042  1.2425  1.1540  1.1540  0.9445  0.8609
  0.8609

 Free energy of the ion-electron system (eV)
  ---------------------------------------------------
  alpha Z        PSCENC =       751.52672365
  Ewald energy   TEWEN  =    -22871.33099671
  -Hartree energ DENC   =     -9078.16336389
  -exchange      EXHF   =         0.00000000
  -V(xc)+E(xc)   XCENC  =      1472.51331021
  PAW double counting   =     29498.18599673   -32317.55082278
  entropy T*S    EENTRO =        -0.00000000
  eigenvalues    EBANDS =     -5211.26109359
  atomic energy  EATOM  =     37532.17946992
  Solvation  Ediel_sol  =         0.00000000
  ---------------------------------------------------
  free energy    TOTEN  =      -223.90077646 eV

  energy without entropy =     -223.90077646  energy(sigma->0) =     -223.90077646


--------------------------------------------------------------------------------------------------------




--------------------------------------- Iteration      1(  17)  ---------------------------------------


    POTLOK:  cpu time      0.0358: real time      0.0362
    SETDIJ:  cpu time      0.0302: real time      0.0304
     EDDAV:  cpu time      6.2590: real time      6.2949
       DOS:  cpu time      0.0005: real time      0.0005
    CHARGE:  cpu time      0.2700: real time      0.2716
    MIXING:  cpu time      0.0022: real time      0.0022
    --------------------------------------------
      LOOP:  cpu time      6.5976: real time      6.6358

 eigenvalue-minimisations  :  2784
 total energy-change (2. order) : 0.7493509E-07  (-0.5438466E-09)
 number of electron     448.0000022 magnetization 
 augmentation part      112.8478669 magnetization 

 Broyden mixing:
  rms(total) = 0.30742E-04    rms(broyden)= 0.30136E-04
  rms(prec ) = 0.32724E-04
  weight for this iteration     100.00

 eigenvalues of (default mixing * dielectric matrix)
  average eigenvalue GAMMA=   1.6265
  3.1859  2.8784  2.2677  2.0930  1.3328  1.3328  1.3577  1.1531  1.0266  1.0266
  0.9317  0.9317

 Free energy of the ion-electron system (eV)
  ---------------------------------------------------
  alpha Z        PSCENC =       751.52672365
  Ewald energy   TEWEN  =    -22871.33099671
  -Hartree energ DENC   =     -9078.16352732
  -exchange      EXHF   =         0.00000000
  -V(xc)+E(xc)   XCENC  =      1472.51331724
  PAW double counting   =     29498.21841380   -32317.58309617
  entropy T*S    EENTRO =        -0.00000000
  eigenvalues    EBANDS =     -5211.26108081
  atomic energy  EATOM  =     37532.17946992
  Solvation  Ediel_sol  =         0.00000000
  ---------------------------------------------------
  free energy    TOTEN  =      -223.90077639 eV

  energy without entropy =     -223.90077639  energy(sigma->0) =     -223.90077639


--------------------------------------------------------------------------------------------------------




--------------------------------------- Iteration      1(  18)  ---------------------------------------


    POTLOK:  cpu time      0.0367: real time      0.0379
    SETDIJ:  cpu time      0.0306: real time      0.0308
     EDDAV:  cpu time      5.9521: real time      5.9860
       DOS:  cpu time      0.0006: real time      0.0006
    CHARGE:  cpu time      0.2726: real time      0.2740
    MIXING:  cpu time      0.0020: real time      0.0020
    --------------------------------------------
      LOOP:  cpu time      6.2946: real time      6.3313

 eigenvalue-minimisations  :  2592
 total energy-change (2. order) : 0.3844616E-07  (-0.6380944E-09)
 number of electron     448.0000022 magnetization 
 augmentation part      112.8478610 magnetization 

 Broyden mixing:
  rms(total) = 0.17457E-04    rms(broyden)= 0.16367E-04
  rms(prec ) = 0.18026E-04
  weight for this iteration     100.00

 eigenvalues of (default mixing * dielectric matrix)
  average eigenvalue GAMMA=   1.5970
  3.2894  2.9213  2.3302  2.3302  1.4323  1.4323  1.2161  1.0845  1.0845  1.0649
  0.9730  0.8012  0.8012

 Free energy of the ion-electron system (eV)
  ---------------------------------------------------
  alpha Z        PSCENC =       751.52672365
  Ewald energy   TEWEN  =    -22871.33099671
  -Hartree energ DENC   =     -9078.16414871
  -exchange      EXHF   =         0.00000000
  -V(xc)+E(xc)   XCENC  =      1472.51335028
  PAW double counting   =     29498.25500987   -32317.61975785
  entropy T*S    EENTRO =        -0.00000000
  eigenvalues    EBANDS =     -5211.26042681
  atomic energy  EATOM  =     37532.17946992
  Solvation  Ediel_sol  =         0.00000000
  ---------------------------------------------------
  free energy    TOTEN  =      -223.90077635 eV

  energy without entropy =     -223.90077635  energy(sigma->0) =     -223.90077635


--------------------------------------------------------------------------------------------------------




--------------------------------------- Iteration      1(  19)  ---------------------------------------


    POTLOK:  cpu time      0.0355: real time      0.0358
    SETDIJ:  cpu time      0.0311: real time      0.0312
     EDDAV:  cpu time      5.4892: real time      5.5207
       DOS:  cpu time      0.0005: real time      0.0005
    --------------------------------------------
      LOOP:  cpu time      5.5562: real time      5.5882

 eigenvalue-minimisations  :  2304
 total energy-change (2. order) :-0.8265488E-08  (-0.2355457E-09)
 number of electron     448.0000022 magnetization 
 augmentation part      112.8478610 magnetization 

 Free energy of the ion-electron system (eV)
  ---------------------------------------------------
  alpha Z        PSCENC =       751.52672365
  Ewald energy   TEWEN  =    -22871.33099671
  -Hartree energ DENC   =     -9078.16426389
  -exchange      EXHF   =         0.00000000
  -V(xc)+E(xc)   XCENC  =      1472.51335114
  PAW double counting   =     29498.24412948   -32317.60882652
  entropy T*S    EENTRO =        -0.00000000
  eigenvalues    EBANDS =     -5211.26036343
  atomic energy  EATOM  =     37532.17946992
  Solvation  Ediel_sol  =         0.00000000
  ---------------------------------------------------
  free energy    TOTEN  =      -223.90077636 eV

  energy without entropy =     -223.90077636  energy(sigma->0) =     -223.90077636


--------------------------------------------------------------------------------------------------------




 average (electrostatic) potential at core
  the test charge radii are     0.9254  0.9406
  (the norm of the test charge is              1.0000)
       1 -46.9496       2 -46.9610       3 -46.9610       4 -46.9496       5 -46.9495
       6 -46.9565       7 -46.9565       8 -46.9495       9 -46.9495      10 -46.9565
      11 -46.9565      12 -46.9495      13 -46.9496      14 -46.9521      15 -46.9521
      16 -46.9496      17 -46.9497      18 -46.9384      19 -46.9384      20 -46.9497
      21 -46.9496      22 -46.9428      23 -46.9428      24 -46.9496      25 -46.9496
      26 -46.9428      27 -46.9428      28 -46.9496      29 -46.9496      30 -46.9471
      31 -46.9471      32 -46.9496      33 -93.6144      34 -93.5880      35 -93.5880
      36 -93.6144      37 -93.5918      38 -93.5881      39 -93.5881      40 -93.5918
      41 -93.5918      42 -93.5881      43 -93.5881      44 -93.5918      45 -93.5920
      46 -93.5882      47 -93.5882      48 -93.5920      49 -93.5623      50 -93.5883
      51 -93.5883      52 -93.5623      53 -93.5846      54 -93.5882      55 -93.5882
      56 -93.5846      57 -93.5846      58 -93.5882      59 -93.5882      60 -93.5846
      61 -93.5845      62 -93.5882      63 -93.5882      64 -93.5845
 
 
 
 E-fermi :  -0.5550     XC(G=0):  -8.4227     alpha+bet : -8.2520

 Fermi energy:        -0.5550157434

 k-point     1 :       0.0000    0.0000    0.0000
  band No.  band energies     occupation 
      1     -21.3067      2.00000
      2     -21.3067      2.00000
      3     -21.3044      2.00000
      4     -21.3044      2.00000
      5     -21.2974      2.00000
      6     -21.2973      2.00000
      7     -21.2971      2.00000
      8     -21.2957      2.00000
      9     -21.2957      2.00000
     10     -21.2955      2.00000
     11     -21.2949      2.00000
     12     -21.2949      2.00000
     13     -21.2944      2.00000
     14     -21.2942      2.00000
     15     -21.2932      2.00000
     16     -21.2929      2.00000
     17     -21.2929      2.00000
     18     -21.2912      2.00000
     19     -21.2912      2.00000
     20     -21.2898      2.00000
     21     -21.2892      2.00000
     22     -21.2892      2.00000
     23     -21.2887      2.00000
     24     -21.2872      2.00000
     25     -21.2861      2.00000
     26     -21.2858      2.00000
     27     -21.2857      2.00000
     28     -21.2856      2.00000
     29     -21.2855      2.00000
     30     -21.2850      2.00000
     31     -21.2850      2.00000
     32     -21.2846      2.00000
     33     -21.2840      2.00000
     34     -21.2837      2.00000
     35     -21.2837      2.00000
     36     -21.2834      2.00000
     37     -21.2831      2.00000
     38     -21.2825      2.00000
     39     -21.2824      2.00000
     40     -21.2824      2.00000
     41     -21.2820      2.00000
     42     -21.2820      2.00000
     43     -21.2816      2.00000
     44     -21.2815      2.00000
     45     -21.2812      2.00000
     46     -21.2811      2.00000
     47     -21.2810      2.00000
     48     -21.2805      2.00000
     49     -21.2801      2.00000
     50     -21.2799      2.00000
     51     -21.2799      2.00000
     52     -21.2799      2.00000
     53     -21.2799      2.00000
     54     -21.2799      2.00000
     55     -21.2798      2.00000
     56     -21.2798      2.00000
     57     -21.2793      2.00000
     58     -21.2787      2.00000
     59     -21.2775      2.00000
     60     -21.2774      2.00000
     61     -21.2762      2.00000
     62     -21.2762      2.00000
     63     -21.2758      2.00000
     64     -21.2758      2.00000
     65     -21.2755      2.00000
     66     -21.2754      2.00000
     67     -21.2742      2.00000
     68     -21.2742      2.00000
     69     -21.2741      2.00000
     70     -21.2741      2.00000
     71     -21.2741      2.00000
     72     -21.2722      2.00000
     73     -21.2718      2.00000
     74     -21.2718      2.00000
     75     -21.2718      2.00000
     76     -21.2717      2.00000
     77     -21.2717      2.00000
     78     -21.2717      2.00000
     79     -21.2712      2.00000
     80     -21.2708      2.00000
     81     -21.2702      2.00000
     82     -21.2702      2.00000
     83     -21.2701      2.00000
     84     -21.2700      2.00000
     85     -21.2699      2.00000
     86     -21.2697      2.00000
     87     -21.2688      2.00000
     88     -21.2688      2.00000
     89     -21.2685      2.00000
     90     -21.2683      2.00000
     91     -21.2661      2.00000
     92     -21.2656      2.00000
     93     -21.2653      2.00000
     94     -21.2644      2.00000
     95     -21.2635      2.00000
     96     -21.2631      2.00000
     97     -13.3583      2.00000
     98     -13.1446      2.00000
     99     -13.1389      2.00000
    100     -13.1373      2.00000
    101     -13.1373      2.00000
    102     -13.1372      2.00000
    103     -13.1319      2.00000
    104     -13.0228      2.00000
    105     -13.0219      2.00000
    106     -13.0112      2.00000
    107     -13.0112      2.00000
    108     -13.0111      2.00000
    109     -13.0111      2.00000
    110     -13.0111      2.00000
[...]
         0         1         2         3         4         5         6         7         8         9
 total charge-density along one line
 
 pseudopotential strength for first ion, spin component:           1
-25.387  -0.000  -0.000   2.510   0.000   0.000  -0.000  -0.000
 -0.000 -25.387  -0.000   0.000   2.510   0.000  -0.000  -0.000
 -0.000  -0.000 -25.387   0.000   0.000   2.510  -0.000  -0.001
  2.510   0.000   0.000   6.528  -0.000  -0.000   0.000   0.000
  0.000   2.510   0.000  -0.000   6.528  -0.000   0.000   0.000
  0.000   0.000   2.510  -0.000  -0.000   6.528   0.000   0.000
 -0.000  -0.000  -0.000   0.000   0.000   0.000   1.428   6.993
 -0.000  -0.000  -0.001   0.000   0.000   0.000   6.993  33.989
 total augmentation occupancy for first ion, spin component:           1
  2.002   0.000   0.000   0.002   0.000   0.000  -0.000  -0.000
  0.000   2.002   0.000   0.000   0.002   0.000  -0.000  -0.000
  0.000   0.000   2.002   0.000   0.000   0.002   0.001  -0.000
  0.002   0.000   0.000   0.017   0.000   0.000   0.000  -0.000
  0.000   0.002   0.000   0.000   0.017   0.000   0.000  -0.000
  0.000   0.000   0.002   0.000   0.000   0.018   0.003  -0.000
 -0.000  -0.000   0.001   0.000   0.000   0.003   0.403  -0.001
 -0.000  -0.000  -0.000  -0.000  -0.000  -0.000  -0.001   0.000


------------------------ aborting loop because EDIFF is reached ----------------------------------------


    CHARGE:  cpu time      0.2666: real time      0.2681
    FORLOC:  cpu time      0.0115: real time      0.0115
    FORNL :  cpu time      1.7289: real time      1.7384
    STRESS:  cpu time      9.4672: real time      9.5153
    FORCOR:  cpu time      0.0430: real time      0.0432
    FORHAR:  cpu time      0.0172: real time      0.0173
    MIXING:  cpu time      0.0012: real time      0.0012
    OFIELD:  cpu time      0.0000: real time      0.0000

  FORCE on cell =-STRESS in cart. coord.  units (eV):
  Direction    XX          YY          ZZ          XY          YZ          ZX
  --------------------------------------------------------------------------------------
  Alpha Z   751.52672   751.52672   751.52672
  Ewald   -7623.64792 -7623.91020 -7623.91020     0.00000     0.01411     0.00000
  Hartree  3026.10929  3026.02677  3026.02677    -0.00000     0.01070    -0.00000
  E(xc)   -2014.34806 -2014.34818 -2014.34818    -0.00000    -0.00000     0.00000
  Local   -2025.12050 -2024.78078 -2024.78078    -0.00000    -0.02463    -0.00000
  n-local  1887.63182  1887.51943  1887.72174    -0.00000     0.00000     0.00000
  augment   687.00900   687.00957   687.00926    -0.00000    -0.00013    -0.00009
  Kinetic  5310.52629  5310.26724  5310.77793     0.00000     0.00002     0.00000
  Fock        0.00000     0.00000     0.00000     0.00000     0.00000     0.00000
  -------------------------------------------------------------------------------------
  Total      -0.31336    -0.33309    -0.33309    -0.00000     0.00007     0.00000
  in kB      -0.35698    -0.37944    -0.37944    -0.00000     0.00007     0.00000
  external pressure =       -0.37 kB  Pullay stress =        0.00 kB


 VOLUME and BASIS-vectors are now :
 -----------------------------------------------------------------------------
  energy-cutoff  :      341.21
  volume of cell :     1406.43
      direct lattice vectors                 reciprocal lattice vectors
    11.204002360  0.000000000  0.000000000     0.089253819  0.000000000  0.000000000
     0.000000000 11.204002360  0.000000000     0.000000000  0.089253819  0.000000000
     0.000000000  0.000000000 11.204002360     0.000000000  0.000000000  0.089253819

  length of vectors
    11.204002360 11.204002360 11.204002360     0.089253819  0.089253819  0.089253819


 FORCES acting on ions
    electron-ion (+dipol)            ewald-force                    non-local-force                 convergence-correction
 -----------------------------------------------------------------------------------------------
   0.433E+01 0.259E-02 0.258E-02   -.428E+01 -.259E-02 -.259E-02   -.109E+00 -.130E-04 -.130E-04   0.523E-04 0.114E-05 0.114E-05
   -.485E+00 -.445E+00 0.445E+00   0.494E+00 0.479E+00 -.479E+00   -.585E-02 -.273E-01 0.273E-01   0.448E-06 0.264E-05 -.264E-05
   -.485E+00 0.445E+00 -.445E+00   0.494E+00 -.479E+00 0.479E+00   -.585E-02 0.273E-01 -.273E-01   0.448E-06 -.264E-05 0.264E-05
   0.433E+01 -.259E-02 -.260E-02   -.428E+01 0.259E-02 0.259E-02   -.109E+00 0.130E-04 0.130E-04   0.523E-04 -.114E-05 -.114E-05
   0.463E+00 -.248E-02 0.249E-02   -.471E+00 0.259E-02 -.259E-02   0.617E-02 -.904E-04 0.828E-04   0.583E-04 0.124E-05 -.157E-06
   -.250E+00 -.397E-01 -.445E+00   0.254E+00 0.392E-01 0.479E+00   -.284E-02 0.426E-03 -.273E-01   0.488E-06 -.170E-06 0.223E-05
   -.250E+00 0.397E-01 0.445E+00   0.254E+00 -.392E-01 -.479E+00   -.284E-02 -.426E-03 0.273E-01   0.488E-06 0.170E-06 -.223E-05
   0.463E+00 0.248E-02 -.249E-02   -.471E+00 -.259E-02 0.259E-02   0.617E-02 0.904E-04 -.828E-04   0.583E-04 -.124E-05 0.157E-06
   0.463E+00 0.249E-02 -.248E-02   -.471E+00 -.259E-02 0.259E-02   0.617E-02 0.828E-04 -.904E-04   0.583E-04 -.157E-06 0.124E-05
   -.250E+00 0.445E+00 0.397E-01   0.254E+00 -.479E+00 -.392E-01   -.284E-02 0.273E-01 -.426E-03   0.488E-06 -.223E-05 0.170E-06
   -.250E+00 -.445E+00 -.397E-01   0.254E+00 0.479E+00 0.392E-01   -.284E-02 -.273E-01 0.426E-03   0.488E-06 0.223E-05 -.170E-06
   0.463E+00 -.249E-02 0.248E-02   -.471E+00 0.259E-02 -.259E-02   0.617E-02 -.828E-04 0.904E-04   0.583E-04 0.157E-06 -.124E-05
   0.365E+00 0.248E-02 0.248E-02   -.375E+00 -.259E-02 -.259E-02   0.851E-02 0.904E-04 0.904E-04   0.581E-04 -.938E-06 -.938E-06
   -.144E-01 0.397E-01 -.397E-01   0.142E-01 -.392E-01 0.392E-01   0.184E-03 -.427E-03 0.427E-03   0.851E-06 0.451E-06 -.451E-06
   -.144E-01 -.397E-01 0.397E-01   0.142E-01 0.392E-01 -.392E-01   0.184E-03 0.427E-03 -.427E-03   0.851E-06 -.451E-06 0.451E-06
   0.365E+00 -.248E-02 -.248E-02   -.375E+00 0.259E-02 0.259E-02   0.851E-02 -.904E-04 -.904E-04   0.581E-04 0.938E-06 0.938E-06
   -.618E+00 0.749E-03 0.754E-03   0.689E+00 -.777E-03 -.777E-03   -.614E-01 0.229E-04 0.229E-04   -.508E-04 0.548E-06 0.548E-06
   -.491E+00 0.438E+00 -.438E+00   0.501E+00 -.470E+00 0.470E+00   -.606E-02 0.268E-01 -.268E-01   -.373E-06 -.340E-05 0.340E-05
   -.491E+00 -.438E+00 0.438E+00   0.501E+00 0.470E+00 -.470E+00   -.606E-02 -.268E-01 0.268E-01   -.373E-06 0.340E-05 -.340E-05
   -.618E+00 -.749E-03 -.744E-03   0.689E+00 0.777E-03 0.777E-03   -.614E-01 -.229E-04 -.229E-04   -.508E-04 -.548E-06 -.548E-06
   -.293E+00 0.753E-03 -.750E-03   0.302E+00 -.777E-03 0.777E-03   -.673E-02 0.193E-04 -.216E-04   -.567E-04 0.507E-06 -.505E-06
   -.255E+00 0.395E-01 0.438E+00   0.259E+00 -.391E-01 -.470E+00   -.299E-02 -.408E-03 0.268E-01   -.860E-06 -.924E-06 -.248E-05
   -.255E+00 -.395E-01 -.438E+00   0.259E+00 0.391E-01 0.470E+00   -.299E-02 0.408E-03 -.268E-01   -.860E-06 0.924E-06 0.248E-05
   -.293E+00 -.753E-03 0.750E-03   0.302E+00 0.777E-03 -.777E-03   -.673E-02 -.193E-04 0.216E-04   -.567E-04 -.507E-06 0.505E-06
   -.293E+00 -.750E-03 0.753E-03   0.302E+00 0.777E-03 -.777E-03   -.673E-02 -.216E-04 0.193E-04   -.567E-04 -.505E-06 0.507E-06
   -.255E+00 -.438E+00 -.395E-01   0.259E+00 0.470E+00 0.391E-01   -.299E-02 -.268E-01 0.408E-03   -.860E-06 0.248E-05 0.924E-06
   -.255E+00 0.438E+00 0.395E-01   0.259E+00 -.470E+00 -.391E-01   -.299E-02 0.268E-01 -.408E-03   -.860E-06 -.248E-05 -.924E-06
   -.293E+00 0.750E-03 -.753E-03   0.302E+00 -.777E-03 0.777E-03   -.673E-02 0.216E-04 -.193E-04   -.567E-04 0.505E-06 -.507E-06
   -.227E+00 -.753E-03 -.753E-03   0.236E+00 0.777E-03 0.777E-03   -.754E-02 -.188E-04 -.188E-04   -.570E-04 -.934E-06 -.934E-06
   -.176E-01 -.395E-01 0.395E-01   0.175E-01 0.391E-01 -.391E-01   0.709E-04 0.408E-03 -.408E-03   -.108E-05 0.562E-06 -.562E-06
   -.176E-01 0.395E-01 -.395E-01   0.175E-01 -.391E-01 0.391E-01   0.709E-04 -.408E-03 0.408E-03   -.108E-05 -.562E-06 0.562E-06
   -.227E+00 0.753E-03 0.753E-03   0.236E+00 -.777E-03 -.777E-03   -.754E-02 0.188E-04 0.188E-04   -.570E-04 0.934E-06 0.934E-06
   -.211E+01 -.159E+00 -.159E+00   0.212E+01 0.161E+00 0.161E+00   0.714E-02 -.329E-02 -.329E-02   -.892E-06 0.833E-06 0.833E-06
   0.181E+01 -.152E-01 0.152E-01   -.184E+01 0.153E-01 -.153E-01   0.331E-01 0.503E-04 -.503E-04   0.541E-04 0.788E-06 -.788E-06
   0.181E+01 0.152E-01 -.152E-01   -.184E+01 -.153E-01 0.153E-01   0.331E-01 -.503E-04 0.503E-04   0.541E-04 -.788E-06 0.788E-06
   -.211E+01 0.159E+00 0.159E+00   0.212E+01 -.161E+00 -.161E+00   0.714E-02 0.329E-02 0.329E-02   -.892E-06 -.833E-06 -.833E-06
   -.775E-01 -.159E+00 0.159E+00   0.776E-01 0.161E+00 -.161E+00   -.937E-04 -.330E-02 0.330E-02   0.733E-06 -.152E-05 -.171E-05
   0.102E+01 -.386E-03 -.152E-01   -.103E+01 0.398E-03 0.153E-01   0.181E-01 -.236E-04 0.457E-04   0.560E-04 0.143E-05 -.502E-07
   0.102E+01 0.386E-03 0.152E-01   -.103E+01 -.398E-03 -.153E-01   0.181E-01 0.236E-04 -.457E-04   0.560E-04 -.143E-05 0.502E-07
   -.775E-01 0.159E+00 -.159E+00   0.776E-01 -.161E+00 0.161E+00   -.937E-04 0.330E-02 -.330E-02   0.733E-06 0.152E-05 0.171E-05
   -.775E-01 0.159E+00 -.159E+00   0.776E-01 -.161E+00 0.161E+00   -.937E-04 0.330E-02 -.330E-02   0.733E-06 -.171E-05 -.152E-05
   0.102E+01 0.152E-01 0.386E-03   -.103E+01 -.153E-01 -.398E-03   0.181E-01 -.457E-04 0.236E-04   0.560E-04 0.502E-07 -.143E-05
   0.102E+01 -.152E-01 -.386E-03   -.103E+01 0.153E-01 0.398E-03   0.181E-01 0.457E-04 -.236E-04   0.560E-04 -.502E-07 0.143E-05
   -.775E-01 -.159E+00 0.159E+00   0.776E-01 0.161E+00 -.161E+00   -.937E-04 -.330E-02 0.330E-02   0.733E-06 0.171E-05 0.152E-05
   -.628E-01 0.159E+00 0.159E+00   0.631E-01 -.161E+00 -.161E+00   -.520E-03 0.330E-02 0.330E-02   0.127E-05 0.161E-05 0.161E-05
   0.217E+00 0.384E-03 -.384E-03   -.219E+00 -.398E-03 0.398E-03   0.305E-02 0.240E-04 -.240E-04   0.543E-04 -.637E-06 0.637E-06
   0.217E+00 -.384E-03 0.384E-03   -.219E+00 0.398E-03 -.398E-03   0.305E-02 -.240E-04 0.240E-04   0.543E-04 0.637E-06 -.637E-06
   -.628E-01 -.159E+00 -.159E+00   0.631E-01 0.161E+00 0.161E+00   -.520E-03 -.330E-02 -.330E-02   0.127E-05 -.161E-05 -.161E-05
   -.205E+01 0.157E+00 0.157E+00   0.206E+01 -.159E+00 -.159E+00   0.198E-02 0.325E-02 0.325E-02   -.905E-06 -.804E-06 -.804E-06
   -.554E+00 0.156E-02 -.156E-02   0.562E+00 -.158E-02 0.158E-02   -.142E-01 0.294E-04 -.294E-04   -.541E-04 0.817E-06 -.817E-06
   -.554E+00 -.156E-02 0.156E-02   0.562E+00 0.158E-02 -.158E-02   -.142E-01 -.294E-04 0.294E-04   -.541E-04 -.817E-06 0.817E-06
   -.205E+01 -.157E+00 -.157E+00   0.206E+01 0.159E+00 0.159E+00   0.198E-02 -.325E-02 -.325E-02   -.905E-06 0.804E-06 0.804E-06
   -.830E-01 0.157E+00 -.157E+00   0.832E-01 -.159E+00 0.159E+00   -.220E-03 0.325E-02 -.324E-02   -.165E-06 -.594E-06 0.152E-05
   -.369E+00 0.272E-03 0.156E-02   0.375E+00 -.274E-03 -.158E-02   -.878E-02 0.240E-05 0.267E-04   -.553E-04 -.306E-07 0.552E-06
   -.369E+00 -.272E-03 -.156E-02   0.375E+00 0.274E-03 0.158E-02   -.878E-02 -.240E-05 -.267E-04   -.553E-04 0.306E-07 -.552E-06
   -.830E-01 -.157E+00 0.157E+00   0.832E-01 0.159E+00 -.159E+00   -.220E-03 -.325E-02 0.324E-02   -.165E-06 0.594E-06 -.152E-05
   -.830E-01 -.157E+00 0.157E+00   0.832E-01 0.159E+00 -.159E+00   -.220E-03 -.324E-02 0.325E-02   -.165E-06 0.152E-05 -.594E-06
   -.369E+00 -.156E-02 -.272E-03   0.375E+00 0.158E-02 0.274E-03   -.878E-02 -.267E-04 -.240E-05   -.553E-04 -.552E-06 0.306E-07
   -.369E+00 0.156E-02 0.272E-03   0.375E+00 -.158E-02 -.274E-03   -.878E-02 0.267E-04 0.240E-05   -.553E-04 0.552E-06 -.306E-07
   -.830E-01 0.157E+00 -.157E+00   0.832E-01 -.159E+00 0.159E+00   -.220E-03 0.324E-02 -.325E-02   -.165E-06 -.152E-05 0.594E-06
   -.670E-01 -.157E+00 -.157E+00   0.674E-01 0.159E+00 0.159E+00   -.601E-03 -.325E-02 -.325E-02   -.183E-05 -.781E-06 -.781E-06
   -.185E+00 -.272E-03 0.272E-03   0.187E+00 0.274E-03 -.274E-03   -.334E-02 -.240E-05 0.240E-05   -.542E-04 -.105E-07 0.105E-07
   -.185E+00 0.272E-03 -.272E-03   0.187E+00 -.274E-03 0.274E-03   -.334E-02 0.240E-05 -.240E-05   -.542E-04 0.105E-07 -.105E-07
   -.670E-01 0.157E+00 0.157E+00   0.674E-01 -.159E+00 -.159E+00   -.601E-03 0.325E-02 0.325E-02   -.183E-05 0.781E-06 0.781E-06
 -----------------------------------------------------------------------------------------------
   0.300E+00 -.187E-10 0.222E-05   0.185E-12 -.818E-13 0.427E-13   -.299E+00 0.390E-17 0.434E-17   0.103E-04 -.200E-12 -.174E-11
 
 
 POSITION                                       TOTAL-FORCE (eV/Angst)
 -----------------------------------------------------------------------------------
      0.03000      0.00000      0.00000        -0.064482     -0.000016     -0.000016
      2.80100      2.80100      0.00000         0.003027      0.005926     -0.005926
      2.80100      0.00000      2.80100         0.003027     -0.005926      0.005926
      0.03000      2.80100      2.80100        -0.064482      0.000016      0.000016
      0.00000      0.00000      5.60200        -0.001716      0.000020     -0.000018
      2.80100      2.80100      5.60200         0.001480     -0.000077      0.005926
      2.80100      0.00000      8.40300         0.001480      0.000077     -0.005926
      0.00000      2.80100      8.40300        -0.001716     -0.000020      0.000018
      0.00000      5.60200      0.00000        -0.001716     -0.000018      0.000020
      2.80100      8.40300      0.00000         0.001480     -0.005926      0.000077
      2.80100      5.60200      2.80100         0.001480      0.005926     -0.000077
      0.00000      8.40300      2.80100        -0.001716      0.000018     -0.000020
      0.00000      5.60200      5.60200        -0.002118     -0.000019     -0.000019
      2.80100      8.40300      5.60200        -0.000067      0.000077     -0.000077
      2.80100      5.60200      8.40300        -0.000067     -0.000077      0.000077
      0.00000      8.40300      8.40300        -0.002118      0.000019      0.000019
      5.60200      0.00000      0.00000         0.010078     -0.000005     -0.000005
      8.40300      2.80100      0.00000         0.003016     -0.005802      0.005802
      8.40300      0.00000      2.80100         0.003016      0.005802     -0.005802
      5.60200      2.80100      2.80100         0.010078      0.000005      0.000005
      5.60200      0.00000      5.60200         0.001473     -0.000004      0.000005
      8.40300      2.80100      5.60200         0.001487      0.000073     -0.005802
      8.40300      0.00000      8.40300         0.001487     -0.000073      0.005802
      5.60200      2.80100      8.40300         0.001473      0.000004     -0.000005
      5.60200      5.60200      0.00000         0.001473      0.000005     -0.000004
      8.40300      8.40300      0.00000         0.001487      0.005802     -0.000073
      8.40300      5.60200      2.80100         0.001487     -0.005802      0.000073
      5.60200      8.40300      2.80100         0.001473     -0.000005      0.000004
      5.60200      5.60200      5.60200         0.001605      0.000004      0.000004
      8.40300      8.40300      5.60200        -0.000042     -0.000073      0.000073
      8.40300      5.60200      8.40300        -0.000042      0.000073     -0.000073
      5.60200      8.40300      8.40300         0.001605     -0.000004     -0.000004
      2.80100      2.80100      2.80100         0.020013     -0.001303     -0.001303
      0.00000      0.00000      2.80100         0.009992      0.000139     -0.000139
      0.00000      2.80100      0.00000         0.009992     -0.000139      0.000139
      2.80100      0.00000      0.00000         0.020013      0.001303      0.001303
      2.80100      2.80100      8.40300        -0.000050     -0.001305      0.001305
      0.00000      0.00000      8.40300         0.005588     -0.000010      0.000125
      0.00000      2.80100      5.60200         0.005588      0.000010     -0.000125
      2.80100      0.00000      5.60200        -0.000050      0.001305     -0.001305
      2.80100      8.40300      2.80100        -0.000050      0.001305     -0.001305
      0.00000      5.60200      2.80100         0.005588     -0.000125      0.000010
      0.00000      8.40300      0.00000         0.005588      0.000125     -0.000010
      2.80100      5.60200      0.00000        -0.000050     -0.001305      0.001305
      2.80100      8.40300      8.40300        -0.000221      0.001305      0.001305
      0.00000      5.60200      8.40300         0.001187      0.000009     -0.000009
      0.00000      8.40300      5.60200         0.001187     -0.000009      0.000009
      2.80100      5.60200      5.60200        -0.000221     -0.001305     -0.001305
      8.40300      2.80100      2.80100         0.015937      0.001286      0.001286
      5.60200      0.00000      2.80100        -0.005663      0.000013     -0.000013
      5.60200      2.80100      0.00000        -0.005663     -0.000013      0.000013
      8.40300      0.00000      0.00000         0.015937     -0.001286     -0.001286
      8.40300      2.80100      8.40300        -0.000100      0.001284     -0.001283
      5.60200      0.00000      8.40300        -0.003499      0.000001      0.000012
      5.60200      2.80100      5.60200        -0.003499     -0.000001     -0.000012
      8.40300      0.00000      5.60200        -0.000100     -0.001284      0.001283
      8.40300      8.40300      2.80100        -0.000100     -0.001283      0.001284
      5.60200      5.60200      2.80100        -0.003499     -0.000012     -0.000001
      5.60200      8.40300      0.00000        -0.003499      0.000012      0.000001
      8.40300      5.60200      0.00000        -0.000100      0.001283     -0.001284
      8.40300      8.40300      8.40300        -0.000250     -0.001281     -0.001281
      5.60200      5.60200      8.40300        -0.001336     -0.000001      0.000001
      5.60200      8.40300      5.60200        -0.001336      0.000001     -0.000001
      8.40300      5.60200      5.60200        -0.000250      0.001281      0.001281
 -----------------------------------------------------------------------------------
    total drift:                                0.001178     -0.000000      0.000002


--------------------------------------------------------------------------------------------------------



  FREE ENERGIE OF THE ION-ELECTRON SYSTEM (eV)
  ---------------------------------------------------
  free  energy   TOTEN  =      -223.90077636 eV

  energy  without entropy=     -223.90077636  energy(sigma->0) =     -223.90077636
 


--------------------------------------------------------------------------------------------------------


    POTLOK:  cpu time      0.0685: real time      0.0689


--------------------------------------------------------------------------------------------------------


     LOOP+:  cpu time    168.6158: real time    169.6041
    4ORBIT:  cpu time      0.0000: real time      0.0000

 total amount of memory used by VASP MPI-rank0   118439. kBytes
=======================================================================

   base      :      30000. kBytes
   nonl-proj :      36470. kBytes
   fftplans  :      14405. kBytes
   grid      :      19342. kBytes
   one-center:        196. kBytes
   wavefun   :      18026. kBytes
 
  
  
 General timing and accounting informations for this job:
 ========================================================
  
                  Total CPU time used (sec):      172.128
                            User time (sec):      171.605
                          System time (sec):        0.523
                         Elapsed time (sec):      173.544
  
                   Maximum memory used (kb):      304160.
                   Average memory used (kb):          N/A
  
                          Minor page faults:       106357
                          Major page faults:            0
                 Voluntary context switches:          885
