<?xml version="1.0" encoding="ISO-8859-1"?>
<modeling>
 <generator>
  <i name="program" type="string">vasp </i>
  <i name="version" type="string">6.3.2  </i>
  <i name="subversion" type="string">27Jun22 (build Oct 14 2022 12:13:54) complex                          parallel </i>
  <i name="platform" type="string">LinuxIFC </i>
  <i name="date" type="string">2025 08 28 </i>
  <i name="time" type="string">22:00:17 </i>
 </generator>
 <incar>
  <i type="string" name="PREC">Accurate</i>
  <i type="int" name="IALGO">    38</i>
  <i type="logical" name="ADDGRID"> T  </i>
  <i type="int" name="NELMIN">     5</i>
  <i type="int" name="IBRION">    -1</i>
  <i name="EDIFF">      0.00000001</i>
  <i name="ENCUT">    341.21360000</i>
  <i type="logical" name="LREAL"> F  </i>
  <i type="int" name="ISMEAR">     0</i>
  <i name="SIGMA">      0.02000000</i>
  <i type="logical" name="LWAVE"> F  </i>
  <i type="logical" name="LCHARG"> F  </i>
  <i type="string" name="GGA">PS</i>
 </incar>
 <primitive_cell>
  <structure name="primitive_cell" >
   <crystal>
    <varray name="basis" >
     <v>      11.20400236       0.00000000       0.00000000 </v>
     <v>       0.00000000      11.20400236       0.00000000 </v>
     <v>       0.00000000       0.00000000      11.20400236 </v>
    </varray>
    <i name="volume">   1406.43470641 </i>
    <varray name="rec_basis" >
     <v>       0.08925382       0.00000000       0.00000000 </v>
     <v>       0.00000000       0.08925382       0.00000000 </v>
     <v>       0.00000000       0.00000000       0.08925382 </v>
    </varray>
   </crystal>
   <varray name="positions" >
    <v>       0.00267761       0.00000000       0.00000000 </v>
    <v>       0.25000000       0.25000000       0.00000000 </v>
    <v>       0.25000000       0.00000000       0.25000000 </v>
    <v>       0.00267761       0.25000000       0.25000000 </v>
    <v>       0.00000000       0.00000000       0.50000000 </v>
    <v>       0.25000000       0.25000000       0.50000000 </v>
    <v>       0.25000000       0.00000000       0.75000000 </v>
    <v>       0.00000000       0.25000000       0.75000000 </v>
    <v>       0.00000000       0.50000000       0.00000000 </v>
    <v>       0.25000000       0.75000000       0.00000000 </v>
    <v>       0.25000000       0.50000000       0.25000000 </v>
    <v>       0.00000000       0.75000000       0.25000000 </v>
    <v>       0.00000000       0.50000000       0.50000000 </v>
    <v>       0.25000000       0.75000000       0.50000000 </v>
    <v>       0.25000000       0.50000000       0.75000000 </v>
    <v>       0.00000000       0.75000000       0.75000000 </v>
    <v>       0.50000000       0.00000000       0.00000000 </v>
    <v>       0.75000000       0.25000000       0.00000000 </v>
    <v>       0.75000000       0.00000000       0.25000000 </v>
    <v>       0.50000000       0.25000000       0.25000000 </v>
    <v>       0.50000000       0.00000000       0.50000000 </v>
    <v>       0.75000000       0.25000000       0.50000000 </v>
    <v>       0.75000000       0.00000000       0.75000000 </v>
    <v>       0.50000000       0.25000000       0.75000000 </v>
    <v>       0.50000000       0.50000000       0.00000000 </v>
    <v>       0.75000000       0.75000000       0.00000000 </v>
    <v>       0.75000000       0.50000000       0.25000000 </v>
    <v>       0.50000000       0.75000000       0.25000000 </v>
    <v>       0.50000000       0.50000000       0.50000000 </v>
    <v>       0.75000000       0.75000000       0.50000000 </v>
    <v>       0.75000000       0.50000000       0.75000000 </v>
    <v>       0.50000000       0.75000000       0.75000000 </v>
    <v>       0.25000000       0.25000000       0.25000000 </v>
    <v>       0.00000000       0.00000000       0.25000000 </v>
    <v>       0.00000000       0.25000000       0.00000000 </v>
    <v>       0.25000000       0.00000000       0.00000000 </v>
    <v>       0.25000000       0.25000000       0.75000000 </v>
    <v>       0.00000000       0.00000000       0.75000000 </v>
    <v>       0.00000000       0.25000000       0.50000000 </v>
    <v>       0.25000000       0.00000000       0.50000000 </v>
    <v>       0.25000000       0.75000000       0.25000000 </v>
    <v>       0.00000000       0.50000000       0.25000000 </v>
    <v>       0.00000000       0.75000000       0.00000000 </v>
    <v>       0.25000000       0.50000000       0.00000000 </v>
    <v>       0.25000000       0.75000000       0.75000000 </v>
    <v>       0.00000000       0.50000000       0.75000000 </v>
    <v>       0.00000000       0.75000000       0.50000000 </v>
    <v>       0.25000000       0.50000000       0.50000000 </v>
    <v>       0.75000000       0.25000000       0.25000000 </v>
    <v>       0.50000000       0.00000000       0.25000000 </v>
    <v>       0.50000000       0.25000000       0.00000000 </v>
    <v>       0.75000000       0.00000000       0.00000000 </v>
    <v>       0.75000000       0.25000000       0.75000000 </v>
    <v>       0.50000000       0.00000000       0.75000000 </v>
    <v>       0.50000000       0.25000000       0.50000000 </v>
    <v>       0.75000000       0.00000000       0.50000000 </v>
    <v>       0.75000000       0.75000000       0.25000000 </v>
    <v>       0.50000000       0.50000000       0.25000000 </v>
    <v>       0.50000000       0.75000000       0.00000000 </v>
    <v>       0.75000000       0.50000000       0.00000000 </v>
    <v>       0.75000000       0.75000000       0.75000000 </v>
    <v>       0.50000000       0.50000000       0.75000000 </v>
    <v>       0.50000000       0.75000000       0.50000000 </v>
    <v>       0.75000000       0.50000000       0.50000000 </v>
   </varray>
  </structure>
  <varray name="primitive_index" >
   <v type="int" >        1 </v>
   <v type="int" >        2 </v>
   <v type="int" >        3 </v>
   <v type="int" >        4 </v>
   <v type="int" >        5 </v>
   <v type="int" >        6 </v>
   <v type="int" >        7 </v>
   <v type="int" >        8 </v>
   <v type="int" >        9 </v>
   <v type="int" >       10 </v>
   <v type="int" >       11 </v>
   <v type="int" >       12 </v>
   <v type="int" >       13 </v>
   <v type="int" >       14 </v>
   <v type="int" >       15 </v>
   <v type="int" >       16 </v>
   <v type="int" >       17 </v>
   <v type="int" >       18 </v>
   <v type="int" >       19 </v>
   <v type="int" >       20 </v>
   <v type="int" >       21 </v>
   <v type="int" >       22 </v>
   <v type="int" >       23 </v>
   <v type="int" >       24 </v>
   <v type="int" >       25 </v>
   <v type="int" >       26 </v>
   <v type="int" >       27 </v>
   <v type="int" >       28 </v>
   <v type="int" >       29 </v>
   <v type="int" >       30 </v>
   <v type="int" >       31 </v>
   <v type="int" >       32 </v>
   <v type="int" >       33 </v>
   <v type="int" >       34 </v>
   <v type="int" >       35 </v>
   <v type="int" >       36 </v>
   <v type="int" >       37 </v>
   <v type="int" >       38 </v>
   <v type="int" >       39 </v>
   <v type="int" >       40 </v>
   <v type="int" >       41 </v>
   <v type="int" >       42 </v>
   <v type="int" >       43 </v>
   <v type="int" >       44 </v>
   <v type="int" >       45 </v>
   <v type="int" >       46 </v>
   <v type="int" >       47 </v>
   <v type="int" >       48 </v>
   <v type="int" >       49 </v>
   <v type="int" >       50 </v>
   <v type="int" >       51 </v>
   <v type="int" >       52 </v>
   <v type="int" >       53 </v>
   <v type="int" >       54 </v>
   <v type="int" >       55 </v>
   <v type="int" >       56 </v>
   <v type="int" >       57 </v>
   <v type="int" >       58 </v>
   <v type="int" >       59 </v>
   <v type="int" >       60 </v>
   <v type="int" >       61 </v>
   <v type="int" >       62 </v>
   <v type="int" >       63 </v>
   <v type="int" >       64 </v>
  </varray>
 </primitive_cell>
 <kpoints>
  <generation param="Gamma">
   <v type="int" name="divisions">       2        2        2 </v>
   <v name="usershift">      0.00000000       0.00000000       0.00000000 </v>
   <v name="genvec1">      0.50000000       0.00000000       0.00000000 </v>
   <v name="genvec2">      0.00000000       0.50000000       0.00000000 </v>
   <v name="genvec3">      0.00000000       0.00000000       0.50000000 </v>
   <v name="shift">      0.00000000       0.00000000       0.00000000 </v>
  </generation>
  <varray name="kpointlist" >
   <v>       0.00000000       0.00000000       0.00000000 </v>
   <v>       0.50000000       0.00000000       0.00000000 </v>
   <v>       0.00000000       0.50000000       0.00000000 </v>
   <v>       0.50000000       0.50000000       0.00000000 </v>
   <v>       0.00000000       0.50000000       0.50000000 </v>
   <v>       0.50000000       0.50000000       0.50000000 </v>
  </varray>
  <varray name="weights" >
   <v>       0.12500000 </v>
   <v>       0.12500000 </v>
   <v>       0.25000000 </v>
   <v>       0.25000000 </v>
   <v>       0.12500000 </v>
   <v>       0.12500000 </v>
  </varray>
 </kpoints>
 <parameters>
  <separator name="general" >
   <i type="string" name="SYSTEM">unknown system</i>
   <i type="logical" name="LCOMPAT"> F  </i>
  </separator>
  <separator name="electronic" >
   <i type="string" name="PREC">accura</i>
   <i name="ENMAX">    341.21360000</i>
   <i name="ENAUG">    368.05600000</i>
   <i name="EDIFF">      0.00000001</i>
   <i type="int" name="IALGO">    38</i>
   <i type="int" name="IWAVPR">    10</i>
   <i type="int" name="NBANDS">   288</i>
   <i type="int" name="NBANDSLOW">    -1</i>
   <i type="int" name="NBANDSHIGH">    -1</i>
   <i name="NELECT">    448.00000000</i>
   <i type="int" name="TURBO">     0</i>
   <i type="int" name="IRESTART">     0</i>
   <i type="int" name="NREBOOT">     0</i>
   <i type="int" name="NMIN">     0</i>
   <i name="EREF">      0.00000000</i>
   <separator name="electronic smearing" >
    <i type="int" name="ISMEAR">     0</i>
    <i name="SIGMA">      0.02000000</i>
    <i name="KSPACING">      0.50000000</i>
    <i type="logical" name="KGAMMA"> T  </i>
    <i type="logical" name="KBLOWUP"> T  </i>
   </separator>
   <separator name="electronic projectors" >
    <i type="logical" name="LREAL"> F  </i>
    <v name="ROPT">      0.00000000      0.00000000</v>
    <i type="int" name="LMAXPAW">  -100</i>
    <i type="int" name="LMAXMIX">     2</i>
    <i type="logical" name="NLSPLINE"> F  </i>
   </separator>
   <separator name="electronic startup" >
    <i type="int" name="ISTART">     0</i>
    <i type="int" name="ICHARG">     2</i>
    <i type="int" name="INIWAV">     1</i>
   </separator>
   <separator name="electronic spin" >
    <i type="int" name="ISPIN">     1</i>
    <i type="logical" name="LNONCOLLINEAR"> F  </i>
    <v name="MAGMOM">      1.00000000      1.00000000      1.00000000      1.00000000      1.00000000      1.00000000      1.00000000      1.00000000      1.00000000      1.00000000      1.00000000      1.00000000      1.00000000      1.00000000      1.00000000      1.00000000      1.00000000      1.00000000      1.00000000      1.00000000
      1.00000000      1.00000000      1.00000000      1.00000000      1.00000000      1.00000000      1.00000000      1.00000000      1.00000000      1.00000000      1.00000000      1.00000000      1.00000000      1.00000000      1.00000000      1.00000000      1.00000000      1.00000000      1.00000000      1.00000000
      1.00000000      1.00000000      1.00000000      1.00000000      1.00000000      1.00000000      1.00000000      1.00000000      1.00000000      1.00000000      1.00000000      1.00000000      1.00000000      1.00000000      1.00000000      1.00000000      1.00000000      1.00000000      1.00000000      1.00000000
      1.00000000      1.00000000      1.00000000      1.00000000</v>
    <i name="NUPDOWN">     -1.00000000</i>
    <i type="logical" name="LSORBIT"> F  </i>
    <v name="SAXIS">      0.00000000      0.00000000      1.00000000</v>
    <i type="logical" name="LSPIRAL"> F  </i>
    <v name="QSPIRAL">      0.00000000      0.00000000      0.00000000</v>
    <i type="logical" name="LZEROZ"> F  </i>
   </separator>
   <separator name="electronic exchange-correlation" >
    <i type="logical" name="LASPH"> F  </i>
    <i type="logical" name="LMETAGGA"> F  </i>
   </separator>
   <separator name="electronic convergence" >
    <i type="int" name="NELM">    60</i>
    <i type="int" name="NELMDL">    -5</i>
    <i type="int" name="NELMIN">     5</i>
    <i name="ENINI">    341.21360000</i>
    <separator name="electronic convergence detail" >
     <i type="logical" name="LDIAG"> T  </i>
     <i type="logical" name="LSUBROT"> F  </i>
     <i name="WEIMIN">      0.00000000</i>
     <i name="EBREAK">      0.00000000</i>
     <i name="DEPER">      0.30000000</i>
     <i type="int" name="NRMM">     4</i>
     <i name="TIME">      0.40000000</i>
    </separator>
   </separator>
   <separator name="electronic mixer" >
    <i name="AMIX">      0.40000000</i>
    <i name="BMIX">      1.00000000</i>
    <i name="AMIN">      0.10000000</i>
    <i name="AMIX_MAG">      1.60000000</i>
    <i name="BMIX_MAG">      1.00000000</i>
    <separator name="electronic mixer details" >
     <i type="int" name="IMIX">     4</i>
     <i type="logical" name="MIXFIRST"> F  </i>
     <i type="int" name="MAXMIX">   -45</i>
     <i name="WC">    100.00000000</i>
     <i type="int" name="INIMIX">     1</i>
     <i type="int" name="MIXPRE">     1</i>
     <i type="int" name="MREMOVE">     5</i>
    </separator>
   </separator>
   <separator name="electronic dipolcorrection" >
    <i type="logical" name="LDIPOL"> F  </i>
    <i type="logical" name="LMONO"> F  </i>
    <i type="int" name="IDIPOL">     0</i>
    <i name="EPSILON">      1.00000000</i>
    <v name="DIPOL">   -100.00000000   -100.00000000   -100.00000000</v>
    <i name="EFIELD">      0.00000000</i>
   </separator>
  </separator>
  <separator name="grids" >
   <i type="int" name="NGX">    70</i>
   <i type="int" name="NGY">    70</i>
   <i type="int" name="NGZ">    70</i>
   <i type="int" name="NGXF">   140</i>
   <i type="int" name="NGYF">   140</i>
   <i type="int" name="NGZF">   140</i>
   <i type="logical" name="ADDGRID"> T  </i>
  </separator>
  <separator name="ionic" >
   <i type="int" name="NSW">     0</i>
   <i type="int" name="IBRION">    -1</i>
   <i type="int" name="MDALGO">     0</i>
   <i type="int" name="ISIF">     2</i>
   <i name="PSTRESS">      0.00000000</i>
   <i name="EDIFFG">      0.00000010</i>
   <i type="int" name="NFREE">     0</i>
   <i name="POTIM">      0.50000000</i>
   <i name="SMASS">     -3.00000000</i>
   <i name="SCALEE">      1.00000000</i>
  </separator>
  <separator name="ionic md" >
   <i name="TEBEG">      0.00010000</i>
   <i name="TEEND">      0.00010000</i>
   <i type="int" name="NBLOCK">     1</i>
   <i type="int" name="KBLOCK">     1</i>
   <i type="int" name="NPACO">   256</i>
   <i name="APACO">     10.00000000</i>
  </separator>
  <separator name="symmetry" >
   <i type="int" name="ISYM">     2</i>
   <i name="SYMPREC">      0.00001000</i>
  </separator>
  <separator name="dos" >
   <i type="int" name="LORBIT">     0</i>
   <v name="RWIGS">     -1.00000000     -1.00000000</v>
   <i type="int" name="NEDOS">   301</i>
   <i name="EMIN">     10.00000000</i>
   <i name="EMAX">    -10.00000000</i>
   <i name="EFERMI">      0.00000000</i>
  </separator>
  <separator name="writing" >
   <i type="int" name="NWRITE">     2</i>
   <i type="logical" name="LWAVE"> F  </i>
   <i type="logical" name="LDOWNSAMPLE"> F  </i>
   <i type="logical" name="LCHARG"> F  </i>
   <i type="logical" name="LPARD"> F  </i>
   <i type="logical" name="LVTOT"> F  </i>
   <i type="logical" name="LVHAR"> F  </i>
   <i type="logical" name="LELF"> F  </i>
   <i type="logical" name="LOPTICS"> F  </i>
   <v name="STM">      0.00000000      0.00000000      0.00000000      0.00000000      0.00000000      0.00000000      0.00000000</v>
  </separator>
  <separator name="performance" >
   <i type="int" name="NPAR">    32</i>
   <i type="int" name="NSIM">     4</i>
   <i type="int" name="NBLK">    -1</i>
   <i type="logical" name="LPLANE"> T  </i>
   <i type="logical" name="LSCALAPACK"> T  </i>
   <i type="logical" name="LSCAAWARE"> F  </i>
   <i type="logical" name="LSCALU"> F  </i>
   <i type="logical" name="LASYNC"> F  </i>
   <i type="logical" name="LORBITALREAL"> F  </i>
  </separator>
  <separator name="miscellaneous" >
   <i type="int" name="IDIOT">     3</i>
   <i type="int" name="PHON_NSTRUCT">    -1</i>
   <i type="logical" name="LMUSIC"> F  </i>
   <v name="POMASS">     22.99000000     35.45300000</v>
   <v name="DARWINR">      0.00000000      0.00000000</v>
   <v name="DARWINV">      1.00000000      1.00000000</v>
   <i type="logical" name="LCORR"> T  </i>
  </separator>
  <i type="logical" name="GGA_COMPAT"> T  </i>
  <i type="logical" name="LBERRY"> F  </i>
  <i type="int" name="ICORELEVEL">     0</i>
  <i type="logical" name="LDAU"> F  </i>
  <i type="int" name="I_CONSTRAINED_M">     0</i>
  <separator name="electronic exchange-correlation" >
   <i type="string" name="GGA">PS</i>
   <i type="int" name="VOSKOWN">     0</i>
   <i type="logical" name="LHFCALC"> F  </i>
   <i type="string" name="PRECFOCK"></i>
   <i type="logical" name="LSYMGRAD"> F  </i>
   <i type="logical" name="LHFONE"> F  </i>
   <i type="logical" name="LRHFCALC"> F  </i>
   <i type="logical" name="LTHOMAS"> F  </i>
   <i type="logical" name="LMODELHF"> F  </i>
   <i type="logical" name="LFOCKACE"> F  </i>
   <i name="ENCUT4O">     -1.00000000</i>
   <i type="int" name="EXXOEP">     0</i>
   <i type="int" name="FOURORBIT">     0</i>
   <i name="AEXX">      0.00000000</i>
   <i name="HFALPHA">      0.00000000</i>
   <i name="MCALPHA">      0.00000000</i>
   <i name="ALDAX">      1.00000000</i>
   <i name="AGGAX">      1.00000000</i>
   <i name="ALDAC">      1.00000000</i>
   <i name="AGGAC">      1.00000000</i>
   <i type="int" name="NKREDX">     1</i>
   <i type="int" name="NKREDY">     1</i>
   <i type="int" name="NKREDZ">     1</i>
   <i type="logical" name="SHIFTRED"> F  </i>
   <i type="logical" name="ODDONLY"> F  </i>
   <i type="logical" name="EVENONLY"> F  </i>
   <i type="int" name="LMAXFOCK">     0</i>
   <i type="int" name="NMAXFOCKAE">     0</i>
   <i type="logical" name="LFOCKAEDFT"> F  </i>
   <i name="HFSCREEN">      0.00000000</i>
   <i name="HFSCREENC">      0.00000000</i>
   <i type="int" name="NBANDSGWLOW">     0</i>
  </separator>
  <separator name="vdW DFT" >
   <i type="logical" name="LUSE_VDW"> F  </i>
   <i name="Zab_VDW">     -0.84910000</i>
   <i name="PARAM1">      0.12340000</i>
   <i name="PARAM2">      1.00000000</i>
   <i name="PARAM3">      0.00000000</i>
  </separator>
  <separator name="model GW" >
   <i type="int" name="MODEL_GW">     0</i>
   <i name="MODEL_EPS0">     13.18532537</i>
   <i name="MODEL_ALPHA">      1.00000000</i>
  </separator>
  <separator name="linear response parameters" >
   <i type="logical" name="LEPSILON"> F  </i>
   <i type="logical" name="LRPA"> F  </i>
   <i type="logical" name="LNABLA"> F  </i>
   <i type="logical" name="LVEL"> F  </i>
   <i name="CSHIFT">      0.10000000</i>
   <i name="OMEGAMAX">     -1.00000000</i>
   <i name="DEG_THRESHOLD">      0.00200000</i>
   <i name="RTIME">     -0.10000000</i>
   <i name="WPLASMAI">      0.00000000</i>
   <v name="DFIELD">      0.00000000      0.00000000      0.00000000</v>
   <v name="WPLASMA">      0.00000000      0.00000000      0.00000000      0.00000000      0.00000000      0.00000000      0.00000000      0.00000000      0.00000000</v>
  </separator>
  <separator name="orbital magnetization" >
   <i type="logical" name="NUCIND"> F  </i>
   <v name="MAGPOS">      0.00000000      0.00000000      0.00000000</v>
   <i type="logical" name="LNICSALL"> T  </i>
   <i type="logical" name="ORBITALMAG"> F  </i>
   <i type="logical" name="LMAGBLOCH"> F  </i>
   <i type="logical" name="LCHIMAG"> F  </i>
   <i type="logical" name="LGAUGE"> T  </i>
   <i type="int" name="MAGATOM">     0</i>
   <v name="MAGDIPOL">      0.00000000      0.00000000      0.00000000</v>
   <v name="AVECCONST">      0.00000000      0.00000000      0.00000000</v>
  </separator>
  <separator name="response functions" >
   <i type="logical" name="LFINITE_TEMPERATURE"> F  </i>
   <i type="logical" name="LADDER"> F  </i>
   <i type="logical" name="LRPAFORCE"> F  </i>
   <i type="logical" name="LFXC"> F  </i>
   <i type="logical" name="LHARTREE"> T  </i>
   <i type="int" name="IBSE">     0</i>
   <v type="int" name="KPOINT">    -1     0     0     0</v>
   <i type="logical" name="LTCTC"> F  </i>
   <i type="logical" name="LTCTE"> F  </i>
   <i type="logical" name="LTETE"> F  </i>
   <i type="logical" name="LTRIPLET"> F  </i>
   <i type="logical" name="LFXCEPS"> F  </i>
   <i type="logical" name="LFXHEG"> F  </i>
   <i type="int" name="NATURALO">     2</i>
   <i type="logical" name="LHOLEGF"> F  </i>
   <i type="logical" name="L2ORDER"> F  </i>
   <i type="logical" name="LDMP1"> F  </i>
   <i type="logical" name="LMP2LT"> F  </i>
   <i type="logical" name="LSMP2LT"> F  </i>
   <i type="logical" name="LGWLF"> F  </i>
   <i name="ENCUTGW">     -2.00000000</i>
   <i name="ENCUTGWSOFT">     -2.00000000</i>
   <i name="ENCUTLF">     -1.00000000</i>
   <i type="logical" name="LESF_SPLINES"> F  </i>
   <i type="int" name="LMAXMP2">    -1</i>
   <i name="SCISSOR">      0.00000000</i>
   <i type="int" name="NOMEGA">     0</i>
   <i type="int" name="NOMEGAR">     0</i>
   <i type="int" name="NBANDSGW">    -1</i>
   <i type="int" name="NBANDSO">    -1</i>
   <i type="int" name="NBANDSV">    -1</i>
   <i type="int" name="NELMGW">     1</i>
   <i type="int" name="NELMHF">     1</i>
   <i type="int" name="DIM">     3</i>
   <i type="int" name="IESPILON">     4</i>
   <i type="int" name="ANTIRES">     0</i>
   <i name="OMEGAMAX">    -30.00000000</i>
   <i name="OMEGAMIN">    -30.00000000</i>
   <i name="OMEGATL">   -200.00000000</i>
   <i type="int" name="OMEGAGRID">     0</i>
   <i name="CSHIFT">     -0.10000000</i>
   <i type="logical" name="LSELFENERGY"> F  </i>
   <i type="logical" name="LSPECTRAL"> F  </i>
   <i type="logical" name="LSPECTRALGW"> F  </i>
   <i type="logical" name="LSINGLES"> F  </i>
   <i type="logical" name="LFERMIGW"> F  </i>
   <i type="logical" name="ODDONLYGW"> F  </i>
   <i type="logical" name="EVENONLYGW"> F  </i>
   <i type="int" name="NKREDLFX">     1</i>
   <i type="int" name="NKREDLFY">     1</i>
   <i type="int" name="NKREDLFZ">     1</i>
   <i type="int" name="MAXMEM">  2800</i>
   <i type="int" name="TELESCOPE">     0</i>
   <i type="int" name="NTAUPAR">    -1</i>
   <i type="int" name="NOMEGAPAR">    -1</i>
   <i name="DAMP_NEWTON">      0.80000001</i>
   <i name="LAMBDA">      1.00000000</i>
  </separator>
  <separator name="External order field" >
   <i name="OFIELD_KAPPA">      0.00000000</i>
   <v name="OFIELD_K">      0.00000000      0.00000000      0.00000000</v>
   <i name="OFIELD_Q6_NEAR">      0.00000000</i>
   <i name="OFIELD_Q6_FAR">      0.00000000</i>
   <i name="OFIELD_A">      0.00000000</i>
  </separator>
  <separator name="optional k-points parameters" >
   <i type="int" name="KPOINTS_OPT_MODE">     1</i>
   <i type="logical" name="LKPOINTS_OPT"> F  </i>
  </separator>
 </parameters>
 <atominfo>
  <atoms>      64 </atoms>
  <types>       2 </types>
  <array name="atoms" >
   <dimension dim="1">ion</dimension>
   <field type="string">element</field>
   <field type="int">atomtype</field>
   <set>
    <rc><c>Na</c><c>   1</c></rc>
    <rc><c>Na</c><c>   1</c></rc>
    <rc><c>Na</c><c>   1</c></rc>
    <rc><c>Na</c><c>   1</c></rc>
    <rc><c>Na</c><c>   1</c></rc>
    <rc><c>Na</c><c>   1</c></rc>
    <rc><c>Na</c><c>   1</c></rc>
    <rc><c>Na</c><c>   1</c></rc>
    <rc><c>Na</c><c>   1</c></rc>
    <rc><c>Na</c><c>   1</c></rc>
    <rc><c>Na</c><c>   1</c></rc>
    <rc><c>Na</c><c>   1</c></rc>
    <rc><c>Na</c><c>   1</c></rc>
    <rc><c>Na</c><c>   1</c></rc>
    <rc><c>Na</c><c>   1</c></rc>
    <rc><c>Na</c><c>   1</c></rc>
    <rc><c>Na</c><c>   1</c></rc>
    <rc><c>Na</c><c>   1</c></rc>
    <rc><c>Na</c><c>   1</c></rc>
    <rc><c>Na</c><c>   1</c></rc>
    <rc><c>Na</c><c>   1</c></rc>
    <rc><c>Na</c><c>   1</c></rc>
    <rc><c>Na</c><c>   1</c></rc>
    <rc><c>Na</c><c>   1</c></rc>
    <rc><c>Na</c><c>   1</c></rc>
    <rc><c>Na</c><c>   1</c></rc>
    <rc><c>Na</c><c>   1</c></rc>
    <rc><c>Na</c><c>   1</c></rc>
    <rc><c>Na</c><c>   1</c></rc>
    <rc><c>Na</c><c>   1</c></rc>
    <rc><c>Na</c><c>   1</c></rc>
    <rc><c>Na</c><c>   1</c></rc>
    <rc><c>Cl</c><c>   2</c></rc>
    <rc><c>Cl</c><c>   2</c></rc>
    <rc><c>Cl</c><c>   2</c></rc>
    <rc><c>Cl</c><c>   2</c></rc>
    <rc><c>Cl</c><c>   2</c></rc>
    <rc><c>Cl</c><c>   2</c></rc>
    <rc><c>Cl</c><c>   2</c></rc>
    <rc><c>Cl</c><c>   2</c></rc>
    <rc><c>Cl</c><c>   2</c></rc>
    <rc><c>Cl</c><c>   2</c></rc>
    <rc><c>Cl</c><c>   2</c></rc>
    <rc><c>Cl</c><c>   2</c></rc>
    <rc><c>Cl</c><c>   2</c></rc>
    <rc><c>Cl</c><c>   2</c></rc>
    <rc><c>Cl</c><c>   2</c></rc>
    <rc><c>Cl</c><c>   2</c></rc>
    <rc><c>Cl</c><c>   2</c></rc>
    <rc><c>Cl</c><c>   2</c></rc>
    <rc><c>Cl</c><c>   2</c></rc>
    <rc><c>Cl</c><c>   2</c></rc>
    <rc><c>Cl</c><c>   2</c></rc>
    <rc><c>Cl</c><c>   2</c></rc>
    <rc><c>Cl</c><c>   2</c></rc>
    <rc><c>Cl</c><c>   2</c></rc>
    <rc><c>Cl</c><c>   2</c></rc>
    <rc><c>Cl</c><c>   2</c></rc>
    <rc><c>Cl</c><c>   2</c></rc>
    <rc><c>Cl</c><c>   2</c></rc>
    <rc><c>Cl</c><c>   2</c></rc>
    <rc><c>Cl</c><c>   2</c></rc>
    <rc><c>Cl</c><c>   2</c></rc>
    <rc><c>Cl</c><c>   2</c></rc>
   </set>
  </array>
  <array name="atomtypes" >
   <dimension dim="1">type</dimension>
   <field type="int">atomspertype</field>
   <field type="string">element</field>
   <field>mass</field>
   <field>valence</field>
   <field type="string">pseudopotential</field>
   <set>
    <rc><c>  32</c><c>Na</c><c>     22.99000000</c><c>      7.00000000</c><c>  PAW_PBE Na_pv 19Sep2006               </c></rc>
    <rc><c>  32</c><c>Cl</c><c>     35.45300000</c><c>      7.00000000</c><c>  PAW_PBE Cl 06Sep2000                  </c></rc>
   </set>
  </array>
 </atominfo>
 <structure name="initialpos" >
  <crystal>
   <varray name="basis" >
    <v>      11.20400236       0.00000000       0.00000000 </v>
    <v>       0.00000000      11.20400236       0.00000000 </v>
    <v>       0.00000000       0.00000000      11.20400236 </v>
   </varray>
   <i name="volume">   1406.43470641 </i>
   <varray name="rec_basis" >
    <v>       0.08925382       0.00000000       0.00000000 </v>
    <v>       0.00000000       0.08925382       0.00000000 </v>
    <v>       0.00000000       0.00000000       0.08925382 </v>
   </varray>
  </crystal>
  <varray name="positions" >
   <v>       0.00267761       0.00000000       0.00000000 </v>
   <v>       0.25000000       0.25000000       0.00000000 </v>
   <v>       0.25000000       0.00000000       0.25000000 </v>
   <v>       0.00267761       0.25000000       0.25000000 </v>
   <v>       0.00000000       0.00000000       0.50000000 </v>
   <v>       0.25000000       0.25000000       0.50000000 </v>
   <v>       0.25000000       0.00000000       0.75000000 </v>
   <v>       0.00000000       0.25000000       0.75000000 </v>
   <v>       0.00000000       0.50000000       0.00000000 </v>
   <v>       0.25000000       0.75000000       0.00000000 </v>
   <v>       0.25000000       0.50000000       0.25000000 </v>
   <v>       0.00000000       0.75000000       0.25000000 </v>
   <v>       0.00000000       0.50000000       0.50000000 </v>
   <v>       0.25000000       0.75000000       0.50000000 </v>
   <v>       0.25000000       0.50000000       0.75000000 </v>
   <v>       0.00000000       0.75000000       0.75000000 </v>
   <v>       0.50000000       0.00000000       0.00000000 </v>
   <v>       0.75000000       0.25000000       0.00000000 </v>
   <v>       0.75000000       0.00000000       0.25000000 </v>
   <v>       0.50000000       0.25000000       0.25000000 </v>
   <v>       0.50000000       0.00000000       0.50000000 </v>
   <v>       0.75000000       0.25000000       0.50000000 </v>
   <v>       0.75000000       0.00000000       0.75000000 </v>
   <v>       0.50000000       0.25000000       0.75000000 </v>
   <v>       0.50000000       0.50000000       0.00000000 </v>
   <v>       0.75000000       0.75000000       0.00000000 </v>
   <v>       0.75000000       0.50000000       0.25000000 </v>
   <v>       0.50000000       0.75000000       0.25000000 </v>
   <v>       0.50000000       0.50000000       0.50000000 </v>
   <v>       0.75000000       0.75000000       0.50000000 </v>
   <v>       0.75000000       0.50000000       0.75000000 </v>
   <v>       0.50000000       0.75000000       0.75000000 </v>
   <v>       0.25000000       0.25000000       0.25000000 </v>
   <v>       0.00000000       0.00000000       0.25000000 </v>
   <v>       0.00000000       0.25000000       0.00000000 </v>
   <v>       0.25000000       0.00000000       0.00000000 </v>
   <v>       0.25000000       0.25000000       0.75000000 </v>
   <v>       0.00000000       0.00000000       0.75000000 </v>
   <v>       0.00000000       0.25000000       0.50000000 </v>
   <v>       0.25000000       0.00000000       0.50000000 </v>
   <v>       0.25000000       0.75000000       0.25000000 </v>
   <v>       0.00000000       0.50000000       0.25000000 </v>
   <v>       0.00000000       0.75000000       0.00000000 </v>
   <v>       0.25000000       0.50000000       0.00000000 </v>
   <v>       0.25000000       0.75000000       0.75000000 </v>
   <v>       0.00000000       0.50000000       0.75000000 </v>
   <v>       0.00000000       0.75000000       0.50000000 </v>
   <v>       0.25000000       0.50000000       0.50000000 </v>
   <v>       0.75000000       0.25000000       0.25000000 </v>
   <v>       0.50000000       0.00000000       0.25000000 </v>
   <v>       0.50000000       0.25000000       0.00000000 </v>
   <v>       0.75000000       0.00000000       0.00000000 </v>
   <v>       0.75000000       0.25000000       0.75000000 </v>
   <v>       0.50000000       0.00000000       0.75000000 </v>
   <v>       0.50000000       0.25000000       0.50000000 </v>
   <v>       0.75000000       0.00000000       0.50000000 </v>
   <v>       0.75000000       0.75000000       0.25000000 </v>
   <v>       0.50000000       0.50000000       0.25000000 </v>
   <v>       0.50000000       0.75000000       0.00000000 </v>
   <v>       0.75000000       0.50000000       0.00000000 </v>
   <v>       0.75000000       0.75000000       0.75000000 </v>
   <v>       0.50000000       0.50000000       0.75000000 </v>
   <v>       0.50000000       0.75000000       0.50000000 </v>
   <v>       0.75000000       0.50000000       0.50000000 </v>
  </varray>
 </structure>
 <calculation>
  <scstep>
   <time name="dav">    7.24    7.28</time>
   <time name="total">    7.31    7.35</time>
   <energy>
    <i name="alphaZ">    751.52672365 </i>
    <i name="ewald"> -22871.33099671 </i>
    <i name="hartreedc">  -8992.25369987 </i>
    <i name="XCdc">   1456.53424261 </i>
    <i name="pawpsdc">  26466.43774078 </i>
    <i name="pawaedc"> -29286.08056155 </i>
    <i name="eentropy">     -0.00373817 </i>
    <i name="bandstr">   -740.79112612 </i>
    <i name="atom">  37532.17946992 </i>
    <i name="e_fr_energy">   4316.21805454 </i>
    <i name="e_wo_entrp">   4316.22179272 </i>
    <i name="e_0_energy">   4316.21992363 </i>
   </energy>
  </scstep>
  <scstep>
   <time name="dav">    7.87    7.92</time>
   <time name="total">    7.87    7.92</time>
   <energy>
    <i name="e_fr_energy">    363.01791554 </i>
    <i name="e_wo_entrp">    363.01791554 </i>
    <i name="e_0_energy">    363.01791554 </i>
   </energy>
  </scstep>
  <scstep>
   <time name="dav">    8.47    8.52</time>
   <time name="total">    8.47    8.52</time>
   <energy>
    <i name="e_fr_energy">   -206.24279472 </i>
    <i name="e_wo_entrp">   -206.24279472 </i>
    <i name="e_0_energy">   -206.24279472 </i>
   </energy>
  </scstep>
  <scstep>
   <time name="dav">    8.42    8.47</time>
   <time name="total">    8.42    8.47</time>
   <energy>
    <i name="e_fr_energy">   -228.19459074 </i>
    <i name="e_wo_entrp">   -228.19459074 </i>
    <i name="e_0_energy">   -228.19459074 </i>
   </energy>
  </scstep>
  <scstep>
   <time name="dav">    8.51    8.57</time>
   <time name="total">    8.79    8.84</time>
   <energy>
    <i name="e_fr_energy">   -229.00517409 </i>
    <i name="e_wo_entrp">   -229.00517409 </i>
    <i name="e_0_energy">   -229.00517409 </i>
   </energy>
  </scstep>
  <scstep>
   <time name="dav">    8.57    8.62</time>
   <time name="total">    8.91    8.96</time>
   <energy>
    <i name="e_fr_energy">   -224.13787660 </i>
    <i name="e_wo_entrp">   -224.13787660 </i>
    <i name="e_0_energy">   -224.13787660 </i>
   </energy>
  </scstep>
  <scstep>
   <time name="dav">    9.31    9.36</time>
   <time name="total">    9.65    9.70</time>
   <energy>
    <i name="e_fr_energy">   -223.77736144 </i>
    <i name="e_wo_entrp">   -223.77736144 </i>
    <i name="e_0_energy">   -223.77736144 </i>
   </energy>
  </scstep>
  <scstep>
   <time name="dav">    8.16    8.21</time>
   <time name="total">    8.50    8.55</time>
   <energy>
    <i name="e_fr_energy">   -223.90243158 </i>
    <i name="e_wo_entrp">   -223.90243158 </i>
    <i name="e_0_energy">   -223.90243158 </i>
   </energy>
  </scstep>
  <scstep>
   <time name="dav">    8.53    8.58</time>
   <time name="total">    8.86    8.92</time>
   <energy>
    <i name="e_fr_energy">   -223.89715740 </i>
    <i name="e_wo_entrp">   -223.89715740 </i>
    <i name="e_0_energy">   -223.89715740 </i>
   </energy>
  </scstep>
  <scstep>
   <time name="dav">    8.14    8.18</time>
   <time name="total">    8.48    8.53</time>
   <energy>
    <i name="e_fr_energy">   -223.90150416 </i>
    <i name="e_wo_entrp">   -223.90150416 </i>
    <i name="e_0_energy">   -223.90150416 </i>
   </energy>
  </scstep>
  <scstep>
   <time name="dav">    8.88    8.93</time>
   <time name="total">    9.21    9.27</time>
   <energy>
    <i name="e_fr_energy">   -223.90080451 </i>
    <i name="e_wo_entrp">   -223.90080451 </i>
    <i name="e_0_energy">   -223.90080451 </i>
   </energy>
  </scstep>
  <scstep>
   <time name="dav">    8.78    8.83</time>
   <time name="total">    9.11    9.17</time>
   <energy>
    <i name="e_fr_energy">   -223.90076670 </i>
    <i name="e_wo_entrp">   -223.90076670 </i>
    <i name="e_0_energy">   -223.90076670 </i>
   </energy>
  </scstep>
  <scstep>
   <time name="dav">    8.74    8.79</time>
   <time name="total">    9.08    9.13</time>
   <energy>
    <i name="e_fr_energy">   -223.90077541 </i>
    <i name="e_wo_entrp">   -223.90077541 </i>
    <i name="e_0_energy">   -223.90077541 </i>
   </energy>
  </scstep>
  <scstep>
   <time name="dav">    9.15    9.20</time>
   <time name="total">    9.48    9.54</time>
   <energy>
    <i name="e_fr_energy">   -223.90077491 </i>
    <i name="e_wo_entrp">   -223.90077491 </i>
    <i name="e_0_energy">   -223.90077491 </i>
   </energy>
  </scstep>
  <scstep>
   <time name="dav">    7.18    7.22</time>
   <time name="total">    7.51    7.56</time>
   <energy>
    <i name="e_fr_energy">   -223.90077603 </i>
    <i name="e_wo_entrp">   -223.90077603 </i>
    <i name="e_0_energy">   -223.90077603 </i>
   </energy>
  </scstep>
  <scstep>
   <time name="dav">    8.52    8.57</time>
   <time name="total">    8.86    8.91</time>
   <energy>
    <i name="e_fr_energy">   -223.90077646 </i>
    <i name="e_wo_entrp">   -223.90077646 </i>
    <i name="e_0_energy">   -223.90077646 </i>
   </energy>
  </scstep>
  <scstep>
   <time name="dav">    6.26    6.29</time>
   <time name="total">    6.60    6.64</time>
   <energy>
    <i name="e_fr_energy">   -223.90077639 </i>
    <i name="e_wo_entrp">   -223.90077639 </i>
    <i name="e_0_energy">   -223.90077639 </i>
   </energy>
  </scstep>
  <scstep>
   <time name="dav">    5.95    5.99</time>
   <time name="total">    6.29    6.33</time>
   <energy>
    <i name="e_fr_energy">   -223.90077635 </i>
    <i name="e_wo_entrp">   -223.90077635 </i>
    <i name="e_0_energy">   -223.90077635 </i>
   </energy>
  </scstep>
  <scstep>
   <time name="dav">    5.49    5.52</time>
   <time name="total">    5.56    5.59</time>
   <energy>
    <i name="alphaZ">    751.52672365 </i>
    <i name="ewald"> -22871.33099671 </i>
    <i name="hartreedc">  -9078.16426389 </i>
    <i name="XCdc">   1472.51335114 </i>
    <i name="pawpsdc">  29498.24412948 </i>
    <i name="pawaedc"> -32317.60882652 </i>
    <i name="eentropy">     -0.00000000 </i>
    <i name="bandstr">  -5211.26036343 </i>
    <i name="atom">  37532.17946992 </i>
    <i name="e_fr_energy">   -223.90077636 </i>
    <i name="e_wo_entrp">   -223.90077636 </i>
    <i name="e_0_energy">   -223.90077636 </i>
   </energy>
  </scstep>
  <structure>
   <crystal>
    <varray name="basis" >
     <v>      11.20400236       0.00000000       0.00000000 </v>
     <v>       0.00000000      11.20400236       0.00000000 </v>
     <v>       0.00000000       0.00000000      11.20400236 </v>
    </varray>
    <i name="volume">   1406.43470641 </i>
    <varray name="rec_basis" >
     <v>       0.08925382       0.00000000       0.00000000 </v>
     <v>       0.00000000       0.08925382       0.00000000 </v>
     <v>       0.00000000       0.00000000       0.08925382 </v>
    </varray>
   </crystal>
   <varray name="positions" >
    <v>       0.00267761       0.00000000       0.00000000 </v>
    <v>       0.25000000       0.25000000       0.00000000 </v>
    <v>       0.25000000       0.00000000       0.25000000 </v>
    <v>       0.00267761       0.25000000       0.25000000 </v>
    <v>       0.00000000       0.00000000       0.50000000 </v>
    <v>       0.25000000       0.25000000       0.50000000 </v>
    <v>       0.25000000       0.00000000       0.75000000 </v>
    <v>       0.00000000       0.25000000       0.75000000 </v>
    <v>       0.00000000       0.50000000       0.00000000 </v>
    <v>       0.25000000       0.75000000       0.00000000 </v>
    <v>       0.25000000       0.50000000       0.25000000 </v>
    <v>       0.00000000       0.75000000       0.25000000 </v>
    <v>       0.00000000       0.50000000       0.50000000 </v>
    <v>       0.25000000       0.75000000       0.50000000 </v>
    <v>       0.25000000       0.50000000       0.75000000 </v>
    <v>       0.00000000       0.75000000       0.75000000 </v>
    <v>       0.50000000       0.00000000       0.00000000 </v>
    <v>       0.75000000       0.25000000       0.00000000 </v>
    <v>       0.75000000       0.00000000       0.25000000 </v>
    <v>       0.50000000       0.25000000       0.25000000 </v>
    <v>       0.50000000       0.00000000       0.50000000 </v>
    <v>       0.75000000       0.25000000       0.50000000 </v>
    <v>       0.75000000       0.00000000       0.75000000 </v>
    <v>       0.50000000       0.25000000       0.75000000 </v>
    <v>       0.50000000       0.50000000       0.00000000 </v>
    <v>       0.75000000       0.75000000       0.00000000 </v>
    <v>       0.75000000       0.50000000       0.25000000 </v>
    <v>       0.50000000       0.75000000       0.25000000 </v>
    <v>       0.50000000       0.50000000       0.50000000 </v>
    <v>       0.75000000       0.75000000       0.50000000 </v>
    <v>       0.75000000       0.50000000       0.75000000 </v>
    <v>       0.50000000       0.75000000       0.75000000 </v>
    <v>       0.25000000       0.25000000       0.25000000 </v>
    <v>       0.00000000       0.00000000       0.25000000 </v>
    <v>       0.00000000       0.25000000       0.00000000 </v>
    <v>       0.25000000       0.00000000       0.00000000 </v>
    <v>       0.25000000       0.25000000       0.75000000 </v>
    <v>       0.00000000       0.00000000       0.75000000 </v>
    <v>       0.00000000       0.25000000       0.50000000 </v>
    <v>       0.25000000       0.00000000       0.50000000 </v>
    <v>       0.25000000       0.75000000       0.25000000 </v>
    <v>       0.00000000       0.50000000       0.25000000 </v>
    <v>       0.00000000       0.75000000       0.00000000 </v>
    <v>       0.25000000       0.50000000       0.00000000 </v>
    <v>       0.25000000       0.75000000       0.75000000 </v>
    <v>       0.00000000       0.50000000       0.75000000 </v>
    <v>       0.00000000       0.75000000       0.50000000 </v>
    <v>       0.25000000       0.50000000       0.50000000 </v>
    <v>       0.75000000       0.25000000       0.25000000 </v>
    <v>       0.50000000       0.00000000       0.25000000 </v>
    <v>       0.50000000       0.25000000       0.00000000 </v>
    <v>       0.75000000       0.00000000       0.00000000 </v>
    <v>       0.75000000       0.25000000       0.75000000 </v>
    <v>       0.50000000       0.00000000       0.75000000 </v>
    <v>       0.50000000       0.25000000       0.50000000 </v>
    <v>       0.75000000       0.00000000       0.50000000 </v>
    <v>       0.75000000       0.75000000       0.25000000 </v>
    <v>       0.50000000       0.50000000       0.25000000 </v>
    <v>       0.50000000       0.75000000       0.00000000 </v>
    <v>       0.75000000       0.50000000       0.00000000 </v>
    <v>       0.75000000       0.75000000       0.75000000 </v>
    <v>       0.50000000       0.50000000       0.75000000 </v>
    <v>       0.50000000       0.75000000       0.50000000 </v>
    <v>       0.75000000       0.50000000       0.50000000 </v>
   </varray>
  </structure>
  <varray name="forces" >
   <v>      -0.06448228      -0.00001595      -0.00001595 </v>
   <v>       0.00302708       0.00592572      -0.00592572 </v>
   <v>       0.00302708      -0.00592572       0.00592572 </v>
   <v>      -0.06448228       0.00001595       0.00001595 </v>
   <v>      -0.00171602       0.00001962      -0.00001831 </v>
   <v>       0.00148026      -0.00007734       0.00592580 </v>
   <v>       0.00148026       0.00007734      -0.00592580 </v>
   <v>      -0.00171602      -0.00001962       0.00001831 </v>
   <v>      -0.00171602      -0.00001831       0.00001962 </v>
   <v>       0.00148026      -0.00592580       0.00007734 </v>
   <v>       0.00148026       0.00592580      -0.00007734 </v>
   <v>      -0.00171602       0.00001831      -0.00001962 </v>
   <v>      -0.00211842      -0.00001950      -0.00001950 </v>
   <v>      -0.00006699       0.00007737      -0.00007737 </v>
   <v>      -0.00006699      -0.00007737       0.00007737 </v>
   <v>      -0.00211842       0.00001950       0.00001950 </v>
   <v>       0.01007834      -0.00000513      -0.00000513 </v>
   <v>       0.00301566      -0.00580212       0.00580212 </v>
   <v>       0.00301566       0.00580212      -0.00580212 </v>
   <v>       0.01007834       0.00000513       0.00000513 </v>
   <v>       0.00147321      -0.00000444       0.00000484 </v>
   <v>       0.00148664       0.00007350      -0.00580177 </v>
   <v>       0.00148664      -0.00007350       0.00580177 </v>
   <v>       0.00147321       0.00000444      -0.00000484 </v>
   <v>       0.00147321       0.00000484      -0.00000444 </v>
   <v>       0.00148664       0.00580177      -0.00007350 </v>
   <v>       0.00148664      -0.00580177       0.00007350 </v>
   <v>       0.00147321      -0.00000484       0.00000444 </v>
   <v>       0.00160524       0.00000442       0.00000442 </v>
   <v>      -0.00004205      -0.00007340       0.00007340 </v>
   <v>      -0.00004205       0.00007340      -0.00007340 </v>
   <v>       0.00160524      -0.00000442      -0.00000442 </v>
   <v>       0.02001273      -0.00130283      -0.00130283 </v>
   <v>       0.00999195       0.00013869      -0.00013869 </v>
   <v>       0.00999195      -0.00013869       0.00013869 </v>
   <v>       0.02001273       0.00130283       0.00130283 </v>
   <v>      -0.00005015      -0.00130501       0.00130544 </v>
   <v>       0.00558839      -0.00001015       0.00012503 </v>
   <v>       0.00558839       0.00001015      -0.00012503 </v>
   <v>      -0.00005015       0.00130501      -0.00130544 </v>
   <v>      -0.00005015       0.00130544      -0.00130501 </v>
   <v>       0.00558839      -0.00012503       0.00001015 </v>
   <v>       0.00558839       0.00012503      -0.00001015 </v>
   <v>      -0.00005015      -0.00130544       0.00130501 </v>
   <v>      -0.00022102       0.00130484       0.00130484 </v>
   <v>       0.00118659       0.00000932      -0.00000932 </v>
   <v>       0.00118659      -0.00000932       0.00000932 </v>
   <v>      -0.00022102      -0.00130484      -0.00130484 </v>
   <v>       0.01593661       0.00128582       0.00128582 </v>
   <v>      -0.00566293       0.00001292      -0.00001292 </v>
   <v>      -0.00566293      -0.00001292       0.00001292 </v>
   <v>       0.01593661      -0.00128582      -0.00128582 </v>
   <v>      -0.00010029       0.00128366      -0.00128348 </v>
   <v>      -0.00349927       0.00000118       0.00001151 </v>
   <v>      -0.00349927      -0.00000118      -0.00001151 </v>
   <v>      -0.00010029      -0.00128366       0.00128348 </v>
   <v>      -0.00010029      -0.00128348       0.00128366 </v>
   <v>      -0.00349927      -0.00001151      -0.00000118 </v>
   <v>      -0.00349927       0.00001151       0.00000118 </v>
   <v>      -0.00010029       0.00128348      -0.00128366 </v>
   <v>      -0.00025037      -0.00128143      -0.00128143 </v>
   <v>      -0.00133568      -0.00000105       0.00000105 </v>
   <v>      -0.00133568       0.00000105      -0.00000105 </v>
   <v>      -0.00025037       0.00128143       0.00128143 </v>
  </varray>
  <varray name="stress" >
   <v>      -0.35697638      -0.00000000       0.00000000 </v>
   <v>      -0.00000000      -0.37944395       0.00007497 </v>
   <v>       0.00000000       0.00007497      -0.37944395 </v>
  </varray>
  <energy>
   <i name="e_fr_energy">   -223.90077636 </i>
   <i name="e_wo_entrp">   -223.90077636 </i>
   <i name="e_0_energy">   -223.90077636 </i>
  </energy>
  <time name="totalsc">  168.62  169.60</time>
  <eigenvalues>
   <array>
    <dimension dim="1">band</dimension>
    <dimension dim="2">kpoint</dimension>
    <dimension dim="3">spin</dimension>
    <field>eigene</field>
    <field>occ</field>
    <set>
     <set comment="spin 1">
      <set comment="kpoint 1">
       <r>  -21.3067    1.0000 </r>
       <r>  -21.3067    1.0000 </r>
       <r>  -21.3044    1.0000 </r>
       <r>  -21.3044    1.0000 </r>
       <r>  -21.2974    1.0000 </r>
       <r>  -21.2973    1.0000 </r>
       <r>  -21.2971    1.0000 </r>
       <r>  -21.2957    1.0000 </r>
       <r>  -21.2957    1.0000 </r>
       <r>  -21.2955    1.0000 </r>
       <r>  -21.2949    1.0000 </r>
       <r>  -21.2949    1.0000 </r>
       <r>  -21.2944    1.0000 </r>
       <r>  -21.2942    1.0000 </r>
       <r>  -21.2932    1.0000 </r>
       <r>  -21.2929    1.0000 </r>
       <r>  -21.2929    1.0000 </r>
       <r>  -21.2912    1.0000 </r>
       <r>  -21.2912    1.0000 </r>
       <r>  -21.2898    1.0000 </r>
       <r>  -21.2892    1.0000 </r>
       <r>  -21.2892    1.0000 </r>
       <r>  -21.2887    1.0000 </r>
       <r>  -21.2872    1.0000 </r>
       <r>  -21.2861    1.0000 </r>
       <r>  -21.2858    1.0000 </r>
       <r>  -21.2857    1.0000 </r>
       <r>  -21.2856    1.0000 </r>
       <r>  -21.2855    1.0000 </r>
       <r>  -21.2850    1.0000 </r>
       <r>  -21.2850    1.0000 </r>
       <r>  -21.2846    1.0000 </r>
       <r>  -21.2840    1.0000 </r>
       <r>  -21.2837    1.0000 </r>
       <r>  -21.2837    1.0000 </r>
       <r>  -21.2834    1.0000 </r>
       <r>  -21.2831    1.0000 </r>
       <r>  -21.2825    1.0000 </r>
       <r>  -21.2824    1.0000 </r>
       <r>  -21.2824    1.0000 </r>
       <r>  -21.2820    1.0000 </r>
       <r>  -21.2820    1.0000 </r>
       <r>  -21.2816    1.0000 </r>
       <r>  -21.2815    1.0000 </r>
       <r>  -21.2812    1.0000 </r>
       <r>  -21.2811    1.0000 </r>
       <r>  -21.2810    1.0000 </r>
       <r>  -21.2805    1.0000 </r>
       <r>  -21.2801    1.0000 </r>
       <r>  -21.2799    1.0000 </r>
       <r>  -21.2799    1.0000 </r>
       <r>  -21.2799    1.0000 </r>
       <r>  -21.2799    1.0000 </r>
       <r>  -21.2799    1.0000 </r>
       <r>  -21.2798    1.0000 </r>
       <r>  -21.2798    1.0000 </r>
       <r>  -21.2793    1.0000 </r>
       <r>  -21.2787    1.0000 </r>
       <r>  -21.2775    1.0000 </r>
       <r>  -21.2774    1.0000 </r>
       <r>  -21.2762    1.0000 </r>
       <r>  -21.2762    1.0000 </r>
       <r>  -21.2758    1.0000 </r>
       <r>  -21.2758    1.0000 </r>
       <r>  -21.2755    1.0000 </r>
       <r>  -21.2754    1.0000 </r>
       <r>  -21.2742    1.0000 </r>
       <r>  -21.2742    1.0000 </r>
       <r>  -21.2741    1.0000 </r>
       <r>  -21.2741    1.0000 </r>
       <r>  -21.2741    1.0000 </r>
       <r>  -21.2722    1.0000 </r>
       <r>  -21.2718    1.0000 </r>
       <r>  -21.2718    1.0000 </r>
       <r>  -21.2718    1.0000 </r>
       <r>  -21.2717    1.0000 </r>
       <r>  -21.2717    1.0000 </r>
       <r>  -21.2717    1.0000 </r>
       <r>  -21.2712    1.0000 </r>
       <r>  -21.2708    1.0000 </r>
       <r>  -21.2702    1.0000 </r>
       <r>  -21.2702    1.0000 </r>
       <r>  -21.2701    1.0000 </r>
       <r>  -21.2700    1.0000 </r>
       <r>  -21.2699    1.0000 </r>
       <r>  -21.2697    1.0000 </r>
       <r>  -21.2688    1.0000 </r>
       <r>  -21.2688    1.0000 </r>
       <r>  -21.2685    1.0000 </r>
       <r>  -21.2683    1.0000 </r>
       <r>  -21.2661    1.0000 </r>
       <r>  -21.2656    1.0000 </r>
       <r>  -21.2653    1.0000 </r>
       <r>  -21.2644    1.0000 </r>
       <r>  -21.2635    1.0000 </r>
       <r>  -21.2631    1.0000 </r>
       <r>  -13.3583    1.0000 </r>
       <r>  -13.1446    1.0000 </r>
       <r>  -13.1389    1.0000 </r>
       <r>  -13.1373    1.0000 </r>
       <r>  -13.1373    1.0000 </r>
       <r>  -13.1372    1.0000 </r>
       <r>  -13.1319    1.0000 </r>
       <r>  -13.0228    1.0000 </r>
       <r>  -13.0219    1.0000 </r>
       <r>  -13.0112    1.0000 </r>
       <r>  -13.0112    1.0000 </r>
       <r>  -13.0111    1.0000 </r>
       <r>  -13.0111    1.0000 </r>
       <r>  -13.0111    1.0000 </r>
       <r>  -13.0111    1.0000 </r>
       <r>  -13.0111    1.0000 </r>
       <r>  -13.0111    1.0000 </r>
       <r>  -13.0056    1.0000 </r>
       <r>  -13.0053    1.0000 </r>
       <r>  -12.9900    1.0000 </r>
       <r>  -12.9900    1.0000 </r>
       <r>  -12.9871    1.0000 </r>
       <r>  -12.9865    1.0000 </r>
       <r>  -12.9434    1.0000 </r>
       <r>  -12.9408    1.0000 </r>
       <r>  -12.9397    1.0000 </r>
       <r>  -12.9246    1.0000 </r>
       <r>  -12.9215    1.0000 </r>
       <r>  -12.9214    1.0000 </r>
       <r>  -12.9214    1.0000 </r>
       <r>  -12.9192    1.0000 </r>
       <r>  -12.9114    1.0000 </r>
       <r>   -2.7002    1.0000 </r>
       <r>   -2.7002    1.0000 </r>
       <r>   -2.7000    1.0000 </r>
       <r>   -2.7000    1.0000 </r>
       <r>   -2.4242    1.0000 </r>
       <r>   -2.4241    1.0000 </r>
       <r>   -2.4240    1.0000 </r>
       <r>   -2.2088    1.0000 </r>
       <r>   -2.2086    1.0000 </r>
       <r>   -2.2054    1.0000 </r>
       <r>   -2.2046    1.0000 </r>
       <r>   -2.2045    1.0000 </r>
       <r>   -2.2045    1.0000 </r>
       <r>   -2.2042    1.0000 </r>
       <r>   -2.2042    1.0000 </r>
       <r>   -2.2041    1.0000 </r>
       <r>   -2.2033    1.0000 </r>
       <r>   -2.2000    1.0000 </r>
       <r>   -2.2000    1.0000 </r>
       <r>   -1.9290    1.0000 </r>
       <r>   -1.9289    1.0000 </r>
       <r>   -1.9254    1.0000 </r>
       <r>   -1.9253    1.0000 </r>
       <r>   -1.9251    1.0000 </r>
       <r>   -1.9251    1.0000 </r>
       <r>   -1.9242    1.0000 </r>
       <r>   -1.9242    1.0000 </r>
       <r>   -1.9240    1.0000 </r>
       <r>   -1.9239    1.0000 </r>
       <r>   -1.9206    1.0000 </r>
       <r>   -1.9205    1.0000 </r>
       <r>   -1.7980    1.0000 </r>
       <r>   -1.7967    1.0000 </r>
       <r>   -1.7967    1.0000 </r>
       <r>   -1.7966    1.0000 </r>
       <r>   -1.7965    1.0000 </r>
       <r>   -1.7951    1.0000 </r>
       <r>   -1.5067    1.0000 </r>
       <r>   -1.5065    1.0000 </r>
       <r>   -1.5065    1.0000 </r>
       <r>   -1.5059    1.0000 </r>
       <r>   -1.5058    1.0000 </r>
       <r>   -1.5057    1.0000 </r>
       <r>   -1.5056    1.0000 </r>
       <r>   -1.5052    1.0000 </r>
       <r>   -1.5051    1.0000 </r>
       <r>   -1.5050    1.0000 </r>
       <r>   -1.5040    1.0000 </r>
       <r>   -1.5040    1.0000 </r>
       <r>   -1.4638    1.0000 </r>
       <r>   -1.4626    1.0000 </r>
       <r>   -1.4625    1.0000 </r>
       <r>   -1.4625    1.0000 </r>
       <r>   -1.4623    1.0000 </r>
       <r>   -1.4616    1.0000 </r>
       <r>   -1.2949    1.0000 </r>
       <r>   -1.2948    1.0000 </r>
       <r>   -1.2947    1.0000 </r>
       <r>   -1.2947    1.0000 </r>
       <r>   -1.2946    1.0000 </r>
       <r>   -1.2943    1.0000 </r>
       <r>   -1.0054    1.0000 </r>
       <r>   -1.0049    1.0000 </r>
       <r>   -1.0032    1.0000 </r>
       <r>   -1.0032    1.0000 </r>
       <r>   -1.0013    1.0000 </r>
       <r>   -1.0012    1.0000 </r>
       <r>   -1.0009    1.0000 </r>
       <r>   -1.0007    1.0000 </r>
       <r>   -1.0005    1.0000 </r>
       <r>   -1.0001    1.0000 </r>
       <r>   -0.9971    1.0000 </r>
       <r>   -0.9968    1.0000 </r>
       <r>   -0.9573    1.0000 </r>
       <r>   -0.9569    1.0000 </r>
       <r>   -0.9485    1.0000 </r>
       <r>   -0.9484    1.0000 </r>
       <r>   -0.9478    1.0000 </r>
       <r>   -0.9478    1.0000 </r>
       <r>   -0.9477    1.0000 </r>
       <r>   -0.9476    1.0000 </r>
       <r>   -0.9471    1.0000 </r>
       <r>   -0.9471    1.0000 </r>
       <r>   -0.9469    1.0000 </r>
       <r>   -0.9468    1.0000 </r>
       <r>   -0.9457    1.0000 </r>
       <r>   -0.9456    1.0000 </r>
       <r>   -0.9456    1.0000 </r>
       <r>   -0.9456    1.0000 </r>
       <r>   -0.9442    1.0000 </r>
       <r>   -0.9437    1.0000 </r>
       <r>   -0.9362    1.0000 </r>
       <r>   -0.9359    1.0000 </r>
       <r>   -0.6648    1.0000 </r>
       <r>   -0.6647    1.0000 </r>
       <r>   -0.6647    1.0000 </r>
       <r>    4.3403    0.0000 </r>
       <r>    6.3645    0.0000 </r>
       <r>    6.3681    0.0000 </r>
       <r>    6.3682    0.0000 </r>
       <r>    6.3682    0.0000 </r>
       <r>    6.3682    0.0000 </r>
       <r>    6.3718    0.0000 </r>
       <r>    6.4446    0.0000 </r>
       <r>    6.4446    0.0000 </r>
       <r>    6.4446    0.0000 </r>
       <r>    6.4446    0.0000 </r>
       <r>    6.8279    0.0000 </r>
       <r>    6.8280    0.0000 </r>
       <r>    6.8280    0.0000 </r>
       <r>    7.2068    0.0000 </r>
       <r>    7.2068    0.0000 </r>
       <r>    7.2068    0.0000 </r>
       <r>    7.4603    0.0000 </r>
       <r>    7.4610    0.0000 </r>
       <r>    7.4618    0.0000 </r>
       <r>    7.4638    0.0000 </r>
       <r>    7.4641    0.0000 </r>
       <r>    7.4641    0.0000 </r>
       <r>    7.4642    0.0000 </r>
       <r>    7.4642    0.0000 </r>
       <r>    7.4646    0.0000 </r>
       <r>    7.4666    0.0000 </r>
       <r>    7.4674    0.0000 </r>
       <r>    7.4681    0.0000 </r>
       <r>    8.1659    0.0000 </r>
       <r>    8.1683    0.0000 </r>
       <r>    8.1684    0.0000 </r>
       <r>    8.1684    0.0000 </r>
       <r>    8.1684    0.0000 </r>
       <r>    8.1709    0.0000 </r>
       <r>    8.2756    0.0000 </r>
       <r>    8.2794    0.0000 </r>
       <r>    8.2795    0.0000 </r>
       <r>    8.2795    0.0000 </r>
       <r>    8.2796    0.0000 </r>
       <r>    8.2834    0.0000 </r>
       <r>    8.8921    0.0000 </r>
       <r>    8.8942    0.0000 </r>
       <r>    8.8960    0.0000 </r>
       <r>    8.8983    0.0000 </r>
       <r>    8.8984    0.0000 </r>
       <r>    8.9002    0.0000 </r>
       <r>    8.9003    0.0000 </r>
       <r>    8.9010    0.0000 </r>
       <r>    8.9019    0.0000 </r>
       <r>    8.9037    0.0000 </r>
       <r>    8.9052    0.0000 </r>
       <r>    8.9069    0.0000 </r>
       <r>    8.9120    0.0000 </r>
       <r>    8.9140    0.0000 </r>
       <r>    8.9156    0.0000 </r>
       <r>    8.9163    0.0000 </r>
       <r>    8.9166    0.0000 </r>
       <r>    8.9182    0.0000 </r>
       <r>    8.9189    0.0000 </r>
       <r>    8.9193    0.0000 </r>
       <r>    8.9215    0.0000 </r>
       <r>    8.9226    0.0000 </r>
       <r>    8.9250    0.0000 </r>
      </set>
      <set comment="kpoint 2">
       <r>  -21.3055    1.0000 </r>
       <r>  -21.3054    1.0000 </r>
       <r>  -21.3017    1.0000 </r>
       <r>  -21.3017    1.0000 </r>
       <r>  -21.2978    1.0000 </r>
       <r>  -21.2978    1.0000 </r>
       <r>  -21.2970    1.0000 </r>
       <r>  -21.2967    1.0000 </r>
       <r>  -21.2965    1.0000 </r>
       <r>  -21.2949    1.0000 </r>
       <r>  -21.2947    1.0000 </r>
       <r>  -21.2947    1.0000 </r>
       <r>  -21.2946    1.0000 </r>
       <r>  -21.2942    1.0000 </r>
       <r>  -21.2942    1.0000 </r>
       <r>  -21.2941    1.0000 </r>
       <r>  -21.2934    1.0000 </r>
       <r>  -21.2933    1.0000 </r>
       <r>  -21.2925    1.0000 </r>
       <r>  -21.2897    1.0000 </r>
       <r>  -21.2893    1.0000 </r>
       <r>  -21.2888    1.0000 </r>
       <r>  -21.2887    1.0000 </r>
       <r>  -21.2885    1.0000 </r>
       <r>  -21.2884    1.0000 </r>
       <r>  -21.2883    1.0000 </r>
       <r>  -21.2876    1.0000 </r>
       <r>  -21.2873    1.0000 </r>
       <r>  -21.2873    1.0000 </r>
       <r>  -21.2868    1.0000 </r>
       <r>  -21.2866    1.0000 </r>
       <r>  -21.2861    1.0000 </r>
       <r>  -21.2859    1.0000 </r>
       <r>  -21.2859    1.0000 </r>
       <r>  -21.2858    1.0000 </r>
       <r>  -21.2830    1.0000 </r>
       <r>  -21.2830    1.0000 </r>
       <r>  -21.2820    1.0000 </r>
       <r>  -21.2820    1.0000 </r>
       <r>  -21.2819    1.0000 </r>
       <r>  -21.2819    1.0000 </r>
       <r>  -21.2819    1.0000 </r>
       <r>  -21.2818    1.0000 </r>
       <r>  -21.2801    1.0000 </r>
       <r>  -21.2800    1.0000 </r>
       <r>  -21.2798    1.0000 </r>
       <r>  -21.2798    1.0000 </r>
       <r>  -21.2794    1.0000 </r>
       <r>  -21.2794    1.0000 </r>
       <r>  -21.2780    1.0000 </r>
       <r>  -21.2779    1.0000 </r>
       <r>  -21.2778    1.0000 </r>
       <r>  -21.2777    1.0000 </r>
       <r>  -21.2775    1.0000 </r>
       <r>  -21.2773    1.0000 </r>
       <r>  -21.2773    1.0000 </r>
       <r>  -21.2772    1.0000 </r>
       <r>  -21.2769    1.0000 </r>
       <r>  -21.2768    1.0000 </r>
       <r>  -21.2764    1.0000 </r>
       <r>  -21.2763    1.0000 </r>
       <r>  -21.2762    1.0000 </r>
       <r>  -21.2760    1.0000 </r>
       <r>  -21.2760    1.0000 </r>
       <r>  -21.2759    1.0000 </r>
       <r>  -21.2755    1.0000 </r>
       <r>  -21.2754    1.0000 </r>
       <r>  -21.2752    1.0000 </r>
       <r>  -21.2743    1.0000 </r>
       <r>  -21.2736    1.0000 </r>
       <r>  -21.2733    1.0000 </r>
       <r>  -21.2726    1.0000 </r>
       <r>  -21.2726    1.0000 </r>
       <r>  -21.2722    1.0000 </r>
       <r>  -21.2722    1.0000 </r>
       <r>  -21.2718    1.0000 </r>
       <r>  -21.2718    1.0000 </r>
       <r>  -21.2717    1.0000 </r>
       <r>  -21.2717    1.0000 </r>
       <r>  -21.2709    1.0000 </r>
       <r>  -21.2709    1.0000 </r>
       <r>  -21.2708    1.0000 </r>
       <r>  -21.2705    1.0000 </r>
       <r>  -21.2703    1.0000 </r>
       <r>  -21.2702    1.0000 </r>
       <r>  -21.2701    1.0000 </r>
       <r>  -21.2700    1.0000 </r>
       <r>  -21.2688    1.0000 </r>
       <r>  -21.2688    1.0000 </r>
       <r>  -21.2688    1.0000 </r>
       <r>  -21.2663    1.0000 </r>
       <r>  -21.2661    1.0000 </r>
       <r>  -21.2654    1.0000 </r>
       <r>  -21.2645    1.0000 </r>
       <r>  -21.2635    1.0000 </r>
       <r>  -21.2631    1.0000 </r>
       <r>  -13.2965    1.0000 </r>
       <r>  -13.2864    1.0000 </r>
       <r>  -13.1062    1.0000 </r>
       <r>  -13.1060    1.0000 </r>
       <r>  -13.0987    1.0000 </r>
       <r>  -13.0987    1.0000 </r>
       <r>  -13.0950    1.0000 </r>
       <r>  -13.0950    1.0000 </r>
       <r>  -13.0897    1.0000 </r>
       <r>  -13.0896    1.0000 </r>
       <r>  -13.0123    1.0000 </r>
       <r>  -13.0113    1.0000 </r>
       <r>  -13.0006    1.0000 </r>
       <r>  -13.0006    1.0000 </r>
       <r>  -13.0005    1.0000 </r>
       <r>  -13.0005    1.0000 </r>
       <r>  -12.9987    1.0000 </r>
       <r>  -12.9951    1.0000 </r>
       <r>  -12.9916    1.0000 </r>
       <r>  -12.9869    1.0000 </r>
       <r>  -12.9530    1.0000 </r>
       <r>  -12.9505    1.0000 </r>
       <r>  -12.9455    1.0000 </r>
       <r>  -12.9455    1.0000 </r>
       <r>  -12.9419    1.0000 </r>
       <r>  -12.9419    1.0000 </r>
       <r>  -12.9381    1.0000 </r>
       <r>  -12.9376    1.0000 </r>
       <r>  -12.9340    1.0000 </r>
       <r>  -12.9312    1.0000 </r>
       <r>  -12.9310    1.0000 </r>
       <r>  -12.9176    1.0000 </r>
       <r>   -2.5119    1.0000 </r>
       <r>   -2.5118    1.0000 </r>
       <r>   -2.5071    1.0000 </r>
       <r>   -2.5071    1.0000 </r>
       <r>   -2.5016    1.0000 </r>
       <r>   -2.5016    1.0000 </r>
       <r>   -2.4972    1.0000 </r>
       <r>   -2.4971    1.0000 </r>
       <r>   -2.2927    1.0000 </r>
       <r>   -2.2926    1.0000 </r>
       <r>   -2.2828    1.0000 </r>
       <r>   -2.2827    1.0000 </r>
       <r>   -2.2796    1.0000 </r>
       <r>   -2.2690    1.0000 </r>
       <r>   -2.1418    1.0000 </r>
       <r>   -2.1416    1.0000 </r>
       <r>   -2.1371    1.0000 </r>
       <r>   -2.1371    1.0000 </r>
       <r>   -2.1358    1.0000 </r>
       <r>   -2.1357    1.0000 </r>
       <r>   -2.1318    1.0000 </r>
       <r>   -2.1316    1.0000 </r>
       <r>   -1.9882    1.0000 </r>
       <r>   -1.9882    1.0000 </r>
       <r>   -1.9876    1.0000 </r>
       <r>   -1.9875    1.0000 </r>
       <r>   -1.9830    1.0000 </r>
       <r>   -1.9829    1.0000 </r>
       <r>   -1.9826    1.0000 </r>
       <r>   -1.9826    1.0000 </r>
       <r>   -1.8140    1.0000 </r>
       <r>   -1.8139    1.0000 </r>
       <r>   -1.8135    1.0000 </r>
       <r>   -1.8134    1.0000 </r>
       <r>   -1.8041    1.0000 </r>
       <r>   -1.8040    1.0000 </r>
       <r>   -1.8036    1.0000 </r>
       <r>   -1.8036    1.0000 </r>
       <r>   -1.5023    1.0000 </r>
       <r>   -1.5023    1.0000 </r>
       <r>   -1.4932    1.0000 </r>
       <r>   -1.4932    1.0000 </r>
       <r>   -1.3915    1.0000 </r>
       <r>   -1.3805    1.0000 </r>
       <r>   -1.3802    1.0000 </r>
       <r>   -1.3700    1.0000 </r>
       <r>   -1.2177    1.0000 </r>
       <r>   -1.2176    1.0000 </r>
       <r>   -1.2078    1.0000 </r>
       <r>   -1.2078    1.0000 </r>
       <r>   -1.1933    1.0000 </r>
       <r>   -1.1932    1.0000 </r>
       <r>   -1.1927    1.0000 </r>
       <r>   -1.1923    1.0000 </r>
       <r>   -1.1920    1.0000 </r>
       <r>   -1.1913    1.0000 </r>
       <r>   -1.1889    1.0000 </r>
       <r>   -1.1888    1.0000 </r>
       <r>   -1.1811    1.0000 </r>
       <r>   -1.1808    1.0000 </r>
       <r>   -1.1766    1.0000 </r>
       <r>   -1.1766    1.0000 </r>
       <r>   -1.1725    1.0000 </r>
       <r>   -1.1725    1.0000 </r>
       <r>   -1.1664    1.0000 </r>
       <r>   -1.1659    1.0000 </r>
       <r>   -1.1641    1.0000 </r>
       <r>   -1.1640    1.0000 </r>
       <r>   -1.1636    1.0000 </r>
       <r>   -1.1633    1.0000 </r>
       <r>   -1.1551    1.0000 </r>
       <r>   -1.1547    1.0000 </r>
       <r>   -1.1544    1.0000 </r>
       <r>   -1.1543    1.0000 </r>
       <r>   -1.0879    1.0000 </r>
       <r>   -1.0782    1.0000 </r>
       <r>   -0.9566    1.0000 </r>
       <r>   -0.9566    1.0000 </r>
       <r>   -0.9469    1.0000 </r>
       <r>   -0.9469    1.0000 </r>
       <r>   -0.9468    1.0000 </r>
       <r>   -0.9468    1.0000 </r>
       <r>   -0.9400    1.0000 </r>
       <r>   -0.9383    1.0000 </r>
       <r>   -0.9378    1.0000 </r>
       <r>   -0.9356    1.0000 </r>
       <r>   -0.9328    1.0000 </r>
       <r>   -0.9326    1.0000 </r>
       <r>   -0.9321    1.0000 </r>
       <r>   -0.9313    1.0000 </r>
       <r>   -0.9257    1.0000 </r>
       <r>   -0.9257    1.0000 </r>
       <r>   -0.7730    1.0000 </r>
       <r>   -0.7729    1.0000 </r>
       <r>   -0.7635    1.0000 </r>
       <r>   -0.7634    1.0000 </r>
       <r>    5.0187    0.0000 </r>
       <r>    5.0260    0.0000 </r>
       <r>    6.7138    0.0000 </r>
       <r>    6.7138    0.0000 </r>
       <r>    6.7159    0.0000 </r>
       <r>    6.7159    0.0000 </r>
       <r>    6.7208    0.0000 </r>
       <r>    6.7208    0.0000 </r>
       <r>    6.7228    0.0000 </r>
       <r>    6.7228    0.0000 </r>
       <r>    6.8374    0.0000 </r>
       <r>    6.8375    0.0000 </r>
       <r>    6.8403    0.0000 </r>
       <r>    6.8403    0.0000 </r>
       <r>    6.8460    0.0000 </r>
       <r>    6.8460    0.0000 </r>
       <r>    6.8490    0.0000 </r>
       <r>    6.8490    0.0000 </r>
       <r>    6.9681    0.0000 </r>
       <r>    6.9741    0.0000 </r>
       <r>    7.3557    0.0000 </r>
       <r>    7.3621    0.0000 </r>
       <r>    7.3630    0.0000 </r>
       <r>    7.3693    0.0000 </r>
       <r>    7.4746    0.0000 </r>
       <r>    7.4858    0.0000 </r>
       <r>    7.7086    0.0000 </r>
       <r>    7.7086    0.0000 </r>
       <r>    7.7206    0.0000 </r>
       <r>    7.7206    0.0000 </r>
       <r>    8.2609    0.0000 </r>
       <r>    8.2609    0.0000 </r>
       <r>    8.2637    0.0000 </r>
       <r>    8.2637    0.0000 </r>
       <r>    8.2681    0.0000 </r>
       <r>    8.2681    0.0000 </r>
       <r>    8.2709    0.0000 </r>
       <r>    8.2709    0.0000 </r>
       <r>    8.5323    0.0000 </r>
       <r>    8.5324    0.0000 </r>
       <r>    8.5340    0.0000 </r>
       <r>    8.5340    0.0000 </r>
       <r>    8.5349    0.0000 </r>
       <r>    8.5349    0.0000 </r>
       <r>    8.5358    0.0000 </r>
       <r>    8.5358    0.0000 </r>
       <r>    8.5407    0.0000 </r>
       <r>    8.5407    0.0000 </r>
       <r>    8.5417    0.0000 </r>
       <r>    8.5417    0.0000 </r>
       <r>    8.5434    0.0000 </r>
       <r>    8.5434    0.0000 </r>
       <r>    8.5449    0.0000 </r>
       <r>    8.5449    0.0000 </r>
       <r>    8.9436    0.0000 </r>
       <r>    8.9437    0.0000 </r>
       <r>    8.9478    0.0000 </r>
       <r>    8.9478    0.0000 </r>
       <r>    8.9541    0.0000 </r>
       <r>    8.9541    0.0000 </r>
       <r>    8.9583    0.0000 </r>
       <r>    8.9583    0.0000 </r>
       <r>    9.4893    0.0000 </r>
       <r>    9.5045    0.0000 </r>
      </set>
      <set comment="kpoint 3">
       <r>  -21.3036    1.0000 </r>
       <r>  -21.3035    1.0000 </r>
       <r>  -21.3013    1.0000 </r>
       <r>  -21.3012    1.0000 </r>
       <r>  -21.3011    1.0000 </r>
       <r>  -21.3010    1.0000 </r>
       <r>  -21.2997    1.0000 </r>
       <r>  -21.2997    1.0000 </r>
       <r>  -21.2971    1.0000 </r>
       <r>  -21.2954    1.0000 </r>
       <r>  -21.2951    1.0000 </r>
       <r>  -21.2950    1.0000 </r>
       <r>  -21.2942    1.0000 </r>
       <r>  -21.2929    1.0000 </r>
       <r>  -21.2923    1.0000 </r>
       <r>  -21.2920    1.0000 </r>
       <r>  -21.2913    1.0000 </r>
       <r>  -21.2909    1.0000 </r>
       <r>  -21.2905    1.0000 </r>
       <r>  -21.2904    1.0000 </r>
       <r>  -21.2900    1.0000 </r>
       <r>  -21.2892    1.0000 </r>
       <r>  -21.2887    1.0000 </r>
       <r>  -21.2881    1.0000 </r>
       <r>  -21.2879    1.0000 </r>
       <r>  -21.2875    1.0000 </r>
       <r>  -21.2872    1.0000 </r>
       <r>  -21.2871    1.0000 </r>
       <r>  -21.2870    1.0000 </r>
       <r>  -21.2861    1.0000 </r>
       <r>  -21.2858    1.0000 </r>
       <r>  -21.2850    1.0000 </r>
       <r>  -21.2846    1.0000 </r>
       <r>  -21.2844    1.0000 </r>
       <r>  -21.2843    1.0000 </r>
       <r>  -21.2840    1.0000 </r>
       <r>  -21.2840    1.0000 </r>
       <r>  -21.2840    1.0000 </r>
       <r>  -21.2838    1.0000 </r>
       <r>  -21.2831    1.0000 </r>
       <r>  -21.2826    1.0000 </r>
       <r>  -21.2825    1.0000 </r>
       <r>  -21.2823    1.0000 </r>
       <r>  -21.2817    1.0000 </r>
       <r>  -21.2813    1.0000 </r>
       <r>  -21.2809    1.0000 </r>
       <r>  -21.2804    1.0000 </r>
       <r>  -21.2804    1.0000 </r>
       <r>  -21.2789    1.0000 </r>
       <r>  -21.2789    1.0000 </r>
       <r>  -21.2788    1.0000 </r>
       <r>  -21.2786    1.0000 </r>
       <r>  -21.2781    1.0000 </r>
       <r>  -21.2780    1.0000 </r>
       <r>  -21.2769    1.0000 </r>
       <r>  -21.2767    1.0000 </r>
       <r>  -21.2763    1.0000 </r>
       <r>  -21.2762    1.0000 </r>
       <r>  -21.2759    1.0000 </r>
       <r>  -21.2758    1.0000 </r>
       <r>  -21.2757    1.0000 </r>
       <r>  -21.2755    1.0000 </r>
       <r>  -21.2752    1.0000 </r>
       <r>  -21.2748    1.0000 </r>
       <r>  -21.2746    1.0000 </r>
       <r>  -21.2745    1.0000 </r>
       <r>  -21.2743    1.0000 </r>
       <r>  -21.2743    1.0000 </r>
       <r>  -21.2743    1.0000 </r>
       <r>  -21.2742    1.0000 </r>
       <r>  -21.2742    1.0000 </r>
       <r>  -21.2740    1.0000 </r>
       <r>  -21.2738    1.0000 </r>
       <r>  -21.2735    1.0000 </r>
       <r>  -21.2732    1.0000 </r>
       <r>  -21.2731    1.0000 </r>
       <r>  -21.2730    1.0000 </r>
       <r>  -21.2717    1.0000 </r>
       <r>  -21.2717    1.0000 </r>
       <r>  -21.2715    1.0000 </r>
       <r>  -21.2713    1.0000 </r>
       <r>  -21.2708    1.0000 </r>
       <r>  -21.2702    1.0000 </r>
       <r>  -21.2697    1.0000 </r>
       <r>  -21.2687    1.0000 </r>
       <r>  -21.2686    1.0000 </r>
       <r>  -21.2685    1.0000 </r>
       <r>  -21.2684    1.0000 </r>
       <r>  -21.2679    1.0000 </r>
       <r>  -21.2672    1.0000 </r>
       <r>  -21.2670    1.0000 </r>
       <r>  -21.2663    1.0000 </r>
       <r>  -21.2656    1.0000 </r>
       <r>  -21.2649    1.0000 </r>
       <r>  -21.2643    1.0000 </r>
       <r>  -21.2636    1.0000 </r>
       <r>  -13.2920    1.0000 </r>
       <r>  -13.2913    1.0000 </r>
       <r>  -13.1062    1.0000 </r>
       <r>  -13.1015    1.0000 </r>
       <r>  -13.0969    1.0000 </r>
       <r>  -13.0969    1.0000 </r>
       <r>  -13.0968    1.0000 </r>
       <r>  -13.0968    1.0000 </r>
       <r>  -13.0943    1.0000 </r>
       <r>  -13.0897    1.0000 </r>
       <r>  -13.0085    1.0000 </r>
       <r>  -13.0037    1.0000 </r>
       <r>  -13.0007    1.0000 </r>
       <r>  -13.0007    1.0000 </r>
       <r>  -13.0006    1.0000 </r>
       <r>  -13.0006    1.0000 </r>
       <r>  -13.0005    1.0000 </r>
       <r>  -13.0005    1.0000 </r>
       <r>  -12.9943    1.0000 </r>
       <r>  -12.9914    1.0000 </r>
       <r>  -12.9519    1.0000 </r>
       <r>  -12.9465    1.0000 </r>
       <r>  -12.9437    1.0000 </r>
       <r>  -12.9437    1.0000 </r>
       <r>  -12.9436    1.0000 </r>
       <r>  -12.9436    1.0000 </r>
       <r>  -12.9403    1.0000 </r>
       <r>  -12.9390    1.0000 </r>
       <r>  -12.9311    1.0000 </r>
       <r>  -12.9309    1.0000 </r>
       <r>  -12.9275    1.0000 </r>
       <r>  -12.9221    1.0000 </r>
       <r>   -2.5050    1.0000 </r>
       <r>   -2.5049    1.0000 </r>
       <r>   -2.5047    1.0000 </r>
       <r>   -2.5046    1.0000 </r>
       <r>   -2.5043    1.0000 </r>
       <r>   -2.5042    1.0000 </r>
       <r>   -2.5041    1.0000 </r>
       <r>   -2.5041    1.0000 </r>
       <r>   -2.2879    1.0000 </r>
       <r>   -2.2877    1.0000 </r>
       <r>   -2.2877    1.0000 </r>
       <r>   -2.2876    1.0000 </r>
       <r>   -2.2746    1.0000 </r>
       <r>   -2.2742    1.0000 </r>
       <r>   -2.1419    1.0000 </r>
       <r>   -2.1387    1.0000 </r>
       <r>   -2.1365    1.0000 </r>
       <r>   -2.1364    1.0000 </r>
       <r>   -2.1363    1.0000 </r>
       <r>   -2.1363    1.0000 </r>
       <r>   -2.1340    1.0000 </r>
       <r>   -2.1306    1.0000 </r>
       <r>   -1.9874    1.0000 </r>
       <r>   -1.9873    1.0000 </r>
       <r>   -1.9857    1.0000 </r>
       <r>   -1.9855    1.0000 </r>
       <r>   -1.9855    1.0000 </r>
       <r>   -1.9854    1.0000 </r>
       <r>   -1.9836    1.0000 </r>
       <r>   -1.9836    1.0000 </r>
       <r>   -1.8100    1.0000 </r>
       <r>   -1.8093    1.0000 </r>
       <r>   -1.8088    1.0000 </r>
       <r>   -1.8087    1.0000 </r>
       <r>   -1.8087    1.0000 </r>
       <r>   -1.8085    1.0000 </r>
       <r>   -1.8082    1.0000 </r>
       <r>   -1.8072    1.0000 </r>
       <r>   -1.4981    1.0000 </r>
       <r>   -1.4980    1.0000 </r>
       <r>   -1.4977    1.0000 </r>
       <r>   -1.4977    1.0000 </r>
       <r>   -1.3807    1.0000 </r>
       <r>   -1.3807    1.0000 </r>
       <r>   -1.3804    1.0000 </r>
       <r>   -1.3804    1.0000 </r>
       <r>   -1.2162    1.0000 </r>
       <r>   -1.2128    1.0000 </r>
       <r>   -1.2125    1.0000 </r>
       <r>   -1.2124    1.0000 </r>
       <r>   -1.1953    1.0000 </r>
       <r>   -1.1947    1.0000 </r>
       <r>   -1.1921    1.0000 </r>
       <r>   -1.1920    1.0000 </r>
       <r>   -1.1907    1.0000 </r>
       <r>   -1.1902    1.0000 </r>
       <r>   -1.1896    1.0000 </r>
       <r>   -1.1893    1.0000 </r>
       <r>   -1.1758    1.0000 </r>
       <r>   -1.1754    1.0000 </r>
       <r>   -1.1742    1.0000 </r>
       <r>   -1.1742    1.0000 </r>
       <r>   -1.1737    1.0000 </r>
       <r>   -1.1736    1.0000 </r>
       <r>   -1.1722    1.0000 </r>
       <r>   -1.1715    1.0000 </r>
       <r>   -1.1605    1.0000 </r>
       <r>   -1.1601    1.0000 </r>
       <r>   -1.1594    1.0000 </r>
       <r>   -1.1593    1.0000 </r>
       <r>   -1.1591    1.0000 </r>
       <r>   -1.1582    1.0000 </r>
       <r>   -1.1581    1.0000 </r>
       <r>   -1.1561    1.0000 </r>
       <r>   -1.0833    1.0000 </r>
       <r>   -1.0832    1.0000 </r>
       <r>   -0.9479    1.0000 </r>
       <r>   -0.9476    1.0000 </r>
       <r>   -0.9469    1.0000 </r>
       <r>   -0.9469    1.0000 </r>
       <r>   -0.9468    1.0000 </r>
       <r>   -0.9468    1.0000 </r>
       <r>   -0.9467    1.0000 </r>
       <r>   -0.9461    1.0000 </r>
       <r>   -0.9377    1.0000 </r>
       <r>   -0.9346    1.0000 </r>
       <r>   -0.9325    1.0000 </r>
       <r>   -0.9324    1.0000 </r>
       <r>   -0.9317    1.0000 </r>
       <r>   -0.9317    1.0000 </r>
       <r>   -0.9295    1.0000 </r>
       <r>   -0.9259    1.0000 </r>
       <r>   -0.7683    1.0000 </r>
       <r>   -0.7683    1.0000 </r>
       <r>   -0.7680    1.0000 </r>
       <r>   -0.7677    1.0000 </r>
       <r>    5.0223    0.0000 </r>
       <r>    5.0224    0.0000 </r>
       <r>    6.7138    0.0000 </r>
       <r>    6.7164    0.0000 </r>
       <r>    6.7183    0.0000 </r>
       <r>    6.7183    0.0000 </r>
       <r>    6.7183    0.0000 </r>
       <r>    6.7184    0.0000 </r>
       <r>    6.7201    0.0000 </r>
       <r>    6.7225    0.0000 </r>
       <r>    6.8425    0.0000 </r>
       <r>    6.8425    0.0000 </r>
       <r>    6.8425    0.0000 </r>
       <r>    6.8426    0.0000 </r>
       <r>    6.8438    0.0000 </r>
       <r>    6.8439    0.0000 </r>
       <r>    6.8441    0.0000 </r>
       <r>    6.8441    0.0000 </r>
       <r>    6.9710    0.0000 </r>
       <r>    6.9711    0.0000 </r>
       <r>    7.3625    0.0000 </r>
       <r>    7.3626    0.0000 </r>
       <r>    7.3626    0.0000 </r>
       <r>    7.3626    0.0000 </r>
       <r>    7.4802    0.0000 </r>
       <r>    7.4802    0.0000 </r>
       <r>    7.7144    0.0000 </r>
       <r>    7.7145    0.0000 </r>
       <r>    7.7146    0.0000 </r>
       <r>    7.7146    0.0000 </r>
       <r>    8.2612    0.0000 </r>
       <r>    8.2638    0.0000 </r>
       <r>    8.2659    0.0000 </r>
       <r>    8.2659    0.0000 </r>
       <r>    8.2659    0.0000 </r>
       <r>    8.2660    0.0000 </r>
       <r>    8.2681    0.0000 </r>
       <r>    8.2706    0.0000 </r>
       <r>    8.5336    0.0000 </r>
       <r>    8.5354    0.0000 </r>
       <r>    8.5365    0.0000 </r>
       <r>    8.5365    0.0000 </r>
       <r>    8.5374    0.0000 </r>
       <r>    8.5379    0.0000 </r>
       <r>    8.5381    0.0000 </r>
       <r>    8.5382    0.0000 </r>
       <r>    8.5386    0.0000 </r>
       <r>    8.5387    0.0000 </r>
       <r>    8.5390    0.0000 </r>
       <r>    8.5397    0.0000 </r>
       <r>    8.5403    0.0000 </r>
       <r>    8.5408    0.0000 </r>
       <r>    8.5413    0.0000 </r>
       <r>    8.5441    0.0000 </r>
       <r>    8.9423    0.0000 </r>
       <r>    8.9475    0.0000 </r>
       <r>    8.9509    0.0000 </r>
       <r>    8.9509    0.0000 </r>
       <r>    8.9509    0.0000 </r>
       <r>    8.9509    0.0000 </r>
       <r>    8.9543    0.0000 </r>
       <r>    8.9595    0.0000 </r>
       <r>    9.4894    0.0000 </r>
       <r>    9.5164    0.0000 </r>
      </set>
      <set comment="kpoint 4">
       <r>  -21.3029    1.0000 </r>
       <r>  -21.3028    1.0000 </r>
       <r>  -21.3003    1.0000 </r>
       <r>  -21.3001    1.0000 </r>
       <r>  -21.2999    1.0000 </r>
       <r>  -21.2997    1.0000 </r>
       <r>  -21.2976    1.0000 </r>
       <r>  -21.2975    1.0000 </r>
       <r>  -21.2968    1.0000 </r>
       <r>  -21.2958    1.0000 </r>
       <r>  -21.2950    1.0000 </r>
       <r>  -21.2949    1.0000 </r>
       <r>  -21.2943    1.0000 </r>
       <r>  -21.2941    1.0000 </r>
       <r>  -21.2940    1.0000 </r>
       <r>  -21.2933    1.0000 </r>
       <r>  -21.2931    1.0000 </r>
       <r>  -21.2924    1.0000 </r>
       <r>  -21.2923    1.0000 </r>
       <r>  -21.2917    1.0000 </r>
       <r>  -21.2916    1.0000 </r>
       <r>  -21.2913    1.0000 </r>
       <r>  -21.2910    1.0000 </r>
       <r>  -21.2902    1.0000 </r>
       <r>  -21.2898    1.0000 </r>
       <r>  -21.2897    1.0000 </r>
       <r>  -21.2868    1.0000 </r>
       <r>  -21.2867    1.0000 </r>
       <r>  -21.2865    1.0000 </r>
       <r>  -21.2864    1.0000 </r>
       <r>  -21.2860    1.0000 </r>
       <r>  -21.2858    1.0000 </r>
       <r>  -21.2851    1.0000 </r>
       <r>  -21.2841    1.0000 </r>
       <r>  -21.2838    1.0000 </r>
       <r>  -21.2826    1.0000 </r>
       <r>  -21.2823    1.0000 </r>
       <r>  -21.2819    1.0000 </r>
       <r>  -21.2818    1.0000 </r>
       <r>  -21.2816    1.0000 </r>
       <r>  -21.2813    1.0000 </r>
       <r>  -21.2811    1.0000 </r>
       <r>  -21.2808    1.0000 </r>
       <r>  -21.2804    1.0000 </r>
       <r>  -21.2803    1.0000 </r>
       <r>  -21.2802    1.0000 </r>
       <r>  -21.2801    1.0000 </r>
       <r>  -21.2795    1.0000 </r>
       <r>  -21.2790    1.0000 </r>
       <r>  -21.2785    1.0000 </r>
       <r>  -21.2784    1.0000 </r>
       <r>  -21.2783    1.0000 </r>
       <r>  -21.2778    1.0000 </r>
       <r>  -21.2778    1.0000 </r>
       <r>  -21.2778    1.0000 </r>
       <r>  -21.2777    1.0000 </r>
       <r>  -21.2775    1.0000 </r>
       <r>  -21.2773    1.0000 </r>
       <r>  -21.2766    1.0000 </r>
       <r>  -21.2765    1.0000 </r>
[...]
      </set>
     </set>
    </set>
   </array>
  </eigenvalues>
  <separator name="orbital magnetization" >
   <v name="MAGDIPOLOUT">      0.00000000      0.00000000      0.00000000</v>
  </separator>
  <dos>
   <i name="efermi">     -0.55501574 </i>
   <total>
    <array>
     <dimension dim="1">gridpoints</dimension>
     <dimension dim="2">spin</dimension>
     <field>energy</field>
     <field>total</field>
     <field>integrated</field>
     <set>
      <set comment="spin 1">
       <r>   -22.8479     0.0000     0.0000 </r>
       <r>   -22.7348     0.0000     0.0000 </r>
       <r>   -22.6218     0.0000     0.0000 </r>
       <r>   -22.5088     0.0000     0.0000 </r>
       <r>   -22.3958     0.0000     0.0000 </r>
       <r>   -22.2828     0.0000     0.0000 </r>
       <r>   -22.1698     0.0000     0.0000 </r>
       <r>   -22.0567     0.0000     0.0000 </r>
       <r>   -21.9437     0.0000     0.0000 </r>
       <r>   -21.8307     0.0000     0.0000 </r>
       <r>   -21.7177     0.0000     0.0000 </r>
       <r>   -21.6047     0.0000     0.0000 </r>
       <r>   -21.4916     0.0000     0.0000 </r>
       <r>   -21.3786     0.0000     0.0000 </r>
       <r>   -21.2656  1379.7459   155.9364 </r>
       <r>   -21.1526   319.0951   192.0000 </r>
       <r>   -21.0396     0.0000   192.0000 </r>
       <r>   -20.9266     0.0000   192.0000 </r>
       <r>   -20.8135     0.0000   192.0000 </r>
       <r>   -20.7005     0.0000   192.0000 </r>
       <r>   -20.5875     0.0000   192.0000 </r>
       <r>   -20.4745     0.0000   192.0000 </r>
       <r>   -20.3615     0.0000   192.0000 </r>
       <r>   -20.2484     0.0000   192.0000 </r>
       <r>   -20.1354     0.0000   192.0000 </r>
       <r>   -20.0224     0.0000   192.0000 </r>
       <r>   -19.9094     0.0000   192.0000 </r>
       <r>   -19.7964     0.0000   192.0000 </r>
       <r>   -19.6834     0.0000   192.0000 </r>
       <r>   -19.5703     0.0000   192.0000 </r>
       <r>   -19.4573     0.0000   192.0000 </r>
       <r>   -19.3443     0.0000   192.0000 </r>
       <r>   -19.2313     0.0000   192.0000 </r>
       <r>   -19.1183     0.0000   192.0000 </r>
       <r>   -19.0052     0.0000   192.0000 </r>
       <r>   -18.8922     0.0000   192.0000 </r>
       <r>   -18.7792     0.0000   192.0000 </r>
       <r>   -18.6662     0.0000   192.0000 </r>
       <r>   -18.5532     0.0000   192.0000 </r>
       <r>   -18.4402     0.0000   192.0000 </r>
       <r>   -18.3271     0.0000   192.0000 </r>
       <r>   -18.2141     0.0000   192.0000 </r>
       <r>   -18.1011     0.0000   192.0000 </r>
       <r>   -17.9881     0.0000   192.0000 </r>
       <r>   -17.8751     0.0000   192.0000 </r>
       <r>   -17.7620     0.0000   192.0000 </r>
       <r>   -17.6490     0.0000   192.0000 </r>
       <r>   -17.5360     0.0000   192.0000 </r>
       <r>   -17.4230     0.0000   192.0000 </r>
       <r>   -17.3100     0.0000   192.0000 </r>
       <r>   -17.1970     0.0000   192.0000 </r>
       <r>   -17.0839     0.0000   192.0000 </r>
       <r>   -16.9709     0.0000   192.0000 </r>
       <r>   -16.8579     0.0000   192.0000 </r>
       <r>   -16.7449     0.0000   192.0000 </r>
       <r>   -16.6319     0.0000   192.0000 </r>
       <r>   -16.5188     0.0000   192.0000 </r>
       <r>   -16.4058     0.0000   192.0000 </r>
       <r>   -16.2928     0.0000   192.0000 </r>
       <r>   -16.1798     0.0000   192.0000 </r>
       <r>   -16.0668     0.0000   192.0000 </r>
       <r>   -15.9537     0.0000   192.0000 </r>
       <r>   -15.8407     0.0000   192.0000 </r>
       <r>   -15.7277     0.0000   192.0000 </r>
       <r>   -15.6147     0.0000   192.0000 </r>
       <r>   -15.5017     0.0000   192.0000 </r>
       <r>   -15.3887     0.0000   192.0000 </r>
       <r>   -15.2756     0.0000   192.0000 </r>
       <r>   -15.1626     0.0000   192.0000 </r>
       <r>   -15.0496     0.0000   192.0000 </r>
       <r>   -14.9366     0.0000   192.0000 </r>
       <r>   -14.8236     0.0000   192.0000 </r>
       <r>   -14.7105     0.0000   192.0000 </r>
       <r>   -14.5975     0.0000   192.0000 </r>
       <r>   -14.4845     0.0000   192.0000 </r>
       <r>   -14.3715     0.0000   192.0000 </r>
       <r>   -14.2585     0.0000   192.0000 </r>
       <r>   -14.1455     0.0000   192.0000 </r>
       <r>   -14.0324     0.0000   192.0000 </r>
       <r>   -13.9194     0.0000   192.0000 </r>
       <r>   -13.8064     0.0000   192.0000 </r>
       <r>   -13.6934     0.0000   192.0000 </r>
       <r>   -13.5804     0.0000   192.0000 </r>
       <r>   -13.4673     0.0000   192.0000 </r>
       <r>   -13.3543     1.3505   192.1526 </r>
       <r>   -13.2413    21.1894   194.5474 </r>
       <r>   -13.1283    48.1136   199.9853 </r>
       <r>   -13.0153   130.7075   214.7578 </r>
       <r>   -12.9023   361.0691   255.5662 </r>
       <r>   -12.7892     3.8335   256.0000 </r>
       <r>   -12.6762     0.0000   256.0000 </r>
       <r>   -12.5632     0.0000   256.0000 </r>
       <r>   -12.4502     0.0000   256.0000 </r>
       <r>   -12.3372     0.0000   256.0000 </r>
       <r>   -12.2241     0.0000   256.0000 </r>
       <r>   -12.1111     0.0000   256.0000 </r>
       <r>   -11.9981     0.0000   256.0000 </r>
       <r>   -11.8851     0.0000   256.0000 </r>
       <r>   -11.7721     0.0000   256.0000 </r>
       <r>   -11.6591     0.0000   256.0000 </r>
       <r>   -11.5460     0.0000   256.0000 </r>
       <r>   -11.4330     0.0000   256.0000 </r>
       <r>   -11.3200     0.0000   256.0000 </r>
       <r>   -11.2070     0.0000   256.0000 </r>
       <r>   -11.0940     0.0000   256.0000 </r>
       <r>   -10.9809     0.0000   256.0000 </r>
       <r>   -10.8679     0.0000   256.0000 </r>
       <r>   -10.7549     0.0000   256.0000 </r>
       <r>   -10.6419     0.0000   256.0000 </r>
       <r>   -10.5289     0.0000   256.0000 </r>
       <r>   -10.4159     0.0000   256.0000 </r>
       <r>   -10.3028     0.0000   256.0000 </r>
       <r>   -10.1898     0.0000   256.0000 </r>
       <r>   -10.0768     0.0000   256.0000 </r>
       <r>    -9.9638     0.0000   256.0000 </r>
       <r>    -9.8508     0.0000   256.0000 </r>
       <r>    -9.7377     0.0000   256.0000 </r>
       <r>    -9.6247     0.0000   256.0000 </r>
       <r>    -9.5117     0.0000   256.0000 </r>
       <r>    -9.3987     0.0000   256.0000 </r>
       <r>    -9.2857     0.0000   256.0000 </r>
       <r>    -9.1727     0.0000   256.0000 </r>
       <r>    -9.0596     0.0000   256.0000 </r>
       <r>    -8.9466     0.0000   256.0000 </r>
       <r>    -8.8336     0.0000   256.0000 </r>
       <r>    -8.7206     0.0000   256.0000 </r>
       <r>    -8.6076     0.0000   256.0000 </r>
       <r>    -8.4945     0.0000   256.0000 </r>
       <r>    -8.3815     0.0000   256.0000 </r>
       <r>    -8.2685     0.0000   256.0000 </r>
       <r>    -8.1555     0.0000   256.0000 </r>
       <r>    -8.0425     0.0000   256.0000 </r>
       <r>    -7.9295     0.0000   256.0000 </r>
       <r>    -7.8164     0.0000   256.0000 </r>
       <r>    -7.7034     0.0000   256.0000 </r>
       <r>    -7.5904     0.0000   256.0000 </r>
       <r>    -7.4774     0.0000   256.0000 </r>
       <r>    -7.3644     0.0000   256.0000 </r>
       <r>    -7.2513     0.0000   256.0000 </r>
       <r>    -7.1383     0.0000   256.0000 </r>
       <r>    -7.0253     0.0000   256.0000 </r>
       <r>    -6.9123     0.0000   256.0000 </r>
       <r>    -6.7993     0.0000   256.0000 </r>
       <r>    -6.6863     0.0000   256.0000 </r>
       <r>    -6.5732     0.0000   256.0000 </r>
       <r>    -6.4602     0.0000   256.0000 </r>
       <r>    -6.3472     0.0000   256.0000 </r>
       <r>    -6.2342     0.0000   256.0000 </r>
       <r>    -6.1212     0.0000   256.0000 </r>
       <r>    -6.0081     0.0000   256.0000 </r>
       <r>    -5.8951     0.0000   256.0000 </r>
       <r>    -5.7821     0.0000   256.0000 </r>
       <r>    -5.6691     0.0000   256.0000 </r>
       <r>    -5.5561     0.0000   256.0000 </r>
       <r>    -5.4431     0.0000   256.0000 </r>
       <r>    -5.3300     0.0000   256.0000 </r>
       <r>    -5.2170     0.0000   256.0000 </r>
       <r>    -5.1040     0.0000   256.0000 </r>
       <r>    -4.9910     0.0000   256.0000 </r>
       <r>    -4.8780     0.0000   256.0000 </r>
       <r>    -4.7649     0.0000   256.0000 </r>
       <r>    -4.6519     0.0000   256.0000 </r>
       <r>    -4.5389     0.0000   256.0000 </r>
       <r>    -4.4259     0.0000   256.0000 </r>
       <r>    -4.3129     0.0000   256.0000 </r>
       <r>    -4.1999     0.0000   256.0000 </r>
       <r>    -4.0868     0.0000   256.0000 </r>
       <r>    -3.9738     0.0000   256.0000 </r>
       <r>    -3.8608     0.0000   256.0000 </r>
       <r>    -3.7478     0.0000   256.0000 </r>
       <r>    -3.6348     0.0000   256.0000 </r>
       <r>    -3.5217     0.0000   256.0000 </r>
       <r>    -3.4087     0.0000   256.0000 </r>
       <r>    -3.2957     0.0000   256.0000 </r>
       <r>    -3.1827     0.0000   256.0000 </r>
       <r>    -3.0697     0.0000   256.0000 </r>
       <r>    -2.9567     0.0000   256.0000 </r>
       <r>    -2.8436     0.0000   256.0000 </r>
       <r>    -2.7306     0.1369   256.0155 </r>
       <r>    -2.6176     8.7112   257.0000 </r>
       <r>    -2.5046    26.3990   259.9836 </r>
       <r>    -2.3916    82.8370   269.3457 </r>
       <r>    -2.2785    83.3299   278.7635 </r>
       <r>    -2.1655   153.9686   296.1656 </r>
       <r>    -2.0525    71.5320   304.2500 </r>
       <r>    -1.9395    57.0762   310.7007 </r>
       <r>    -1.8265    63.1490   317.8383 </r>
       <r>    -1.7135    70.0036   325.7500 </r>
       <r>    -1.6004     0.0000   325.7500 </r>
       <r>    -1.4874    75.1524   334.2436 </r>
       <r>    -1.3744   193.2289   356.0820 </r>
       <r>    -1.2614    23.9960   358.7940 </r>
       <r>    -1.1484   255.0292   387.6169 </r>
       <r>    -1.0353   135.7665   402.9610 </r>
       <r>    -0.9223   258.9366   432.2260 </r>
       <r>    -0.8093    62.6867   439.3115 </r>
       <r>    -0.6963    70.2870   447.2552 </r>
       <r>    -0.5833     6.5899   448.0000 </r>
       <r>    -0.4703     0.0000   448.0000 </r>
       <r>    -0.3572     0.0000   448.0000 </r>
       <r>    -0.2442     0.0000   448.0000 </r>
       <r>    -0.1312     0.0000   448.0000 </r>
       <r>    -0.0182     0.0000   448.0000 </r>
       <r>     0.0948     0.0000   448.0000 </r>
       <r>     0.2079     0.0000   448.0000 </r>
       <r>     0.3209     0.0000   448.0000 </r>
       <r>     0.4339     0.0000   448.0000 </r>
       <r>     0.5469     0.0000   448.0000 </r>
       <r>     0.6599     0.0000   448.0000 </r>
       <r>     0.7729     0.0000   448.0000 </r>
       <r>     0.8860     0.0000   448.0000 </r>
       <r>     0.9990     0.0000   448.0000 </r>
       <r>     1.1120     0.0000   448.0000 </r>
       <r>     1.2250     0.0000   448.0000 </r>
       <r>     1.3380     0.0000   448.0000 </r>
       <r>     1.4511     0.0000   448.0000 </r>
       <r>     1.5641     0.0000   448.0000 </r>
       <r>     1.6771     0.0000   448.0000 </r>
       <r>     1.7901     0.0000   448.0000 </r>
       <r>     1.9031     0.0000   448.0000 </r>
       <r>     2.0161     0.0000   448.0000 </r>
       <r>     2.1292     0.0000   448.0000 </r>
       <r>     2.2422     0.0000   448.0000 </r>
       <r>     2.3552     0.0000   448.0000 </r>
       <r>     2.4682     0.0000   448.0000 </r>
       <r>     2.5812     0.0000   448.0000 </r>
       <r>     2.6943     0.0000   448.0000 </r>
       <r>     2.8073     0.0000   448.0000 </r>
       <r>     2.9203     0.0000   448.0000 </r>
       <r>     3.0333     0.0000   448.0000 </r>
       <r>     3.1463     0.0000   448.0000 </r>
       <r>     3.2593     0.0000   448.0000 </r>
       <r>     3.3724     0.0000   448.0000 </r>
       <r>     3.4854     0.0000   448.0000 </r>
       <r>     3.5984     0.0000   448.0000 </r>
       <r>     3.7114     0.0000   448.0000 </r>
       <r>     3.8244     0.0000   448.0000 </r>
       <r>     3.9375     0.0000   448.0000 </r>
       <r>     4.0505     0.0000   448.0000 </r>
       <r>     4.1635     0.0000   448.0000 </r>
       <r>     4.2765     0.0000   448.0000 </r>
       <r>     4.3895     2.2115   448.2499 </r>
       <r>     4.5026     0.0000   448.2500 </r>
       <r>     4.6156     0.0000   448.2500 </r>
       <r>     4.7286     0.0000   448.2500 </r>
       <r>     4.8416     0.0000   448.2500 </r>
       <r>     4.9546     0.0000   448.2500 </r>
       <r>     5.0676    13.2619   449.7488 </r>
       <r>     5.1807     0.0097   449.7500 </r>
       <r>     5.2937     0.0000   449.7500 </r>
       <r>     5.4067     0.0000   449.7500 </r>
       <r>     5.5197     2.2967   450.0096 </r>
       <r>     5.6327    24.2477   452.7500 </r>
       <r>     5.7458     0.0000   452.7500 </r>
       <r>     5.8588    17.1355   454.6866 </r>
       <r>     5.9718     0.5608   454.7500 </r>
       <r>     6.0848     0.0000   454.7500 </r>
       <r>     6.1978     0.0000   454.7500 </r>
       <r>     6.3108     0.0004   454.7500 </r>
       <r>     6.4239    13.9009   456.3211 </r>
       <r>     6.5369     8.2184   457.2500 </r>
       <r>     6.6499    41.0972   461.8947 </r>
       <r>     6.7629    65.0281   469.2441 </r>
       <r>     6.8759    59.1593   475.9304 </r>
       <r>     6.9890    12.4968   477.3431 </r>
       <r>     7.1020     1.3886   477.5000 </r>
       <r>     7.2150     4.7674   478.0388 </r>
       <r>     7.3280     2.0894   478.2749 </r>
       <r>     7.4410    80.9792   487.4271 </r>
       <r>     7.5540   167.9412   506.4078 </r>
       <r>     7.6671     3.0424   506.7517 </r>
       <r>     7.7801    26.5297   509.7500 </r>
       <r>     7.8931     0.1690   509.7691 </r>
       <r>     8.0061    52.9197   515.7500 </r>
       <r>     8.1191     0.0035   515.7504 </r>
       <r>     8.2322    13.7967   517.3097 </r>
       <r>     8.3452    92.3656   527.7487 </r>
       <r>     8.4582     0.0035   527.7500 </r>
       <r>     8.5712   148.7308   544.5593 </r>
       <r>     8.6842    10.5355   545.7500 </r>
       <r>     8.7972     0.0000   545.7500 </r>
       <r>     8.9103    79.9480   554.7856 </r>
       <r>     9.0233   125.7009   568.9921 </r>
       <r>     9.1363     4.4942   569.5000 </r>
       <r>     9.2493    23.0632   572.1066 </r>
       <r>     9.3623    21.1775   574.5000 </r>
       <r>     9.4754     1.1166   574.6262 </r>
       <r>     9.5884    12.1556   576.0000 </r>
       <r>     9.7014     0.0000   576.0000 </r>
       <r>     9.8144     0.0000   576.0000 </r>
       <r>     9.9274     0.0000   576.0000 </r>
       <r>    10.0404     0.0000   576.0000 </r>
       <r>    10.1535     0.0000   576.0000 </r>
       <r>    10.2665     0.0000   576.0000 </r>
       <r>    10.3795     0.0000   576.0000 </r>
       <r>    10.4925     0.0000   576.0000 </r>
       <r>    10.6055     0.0000   576.0000 </r>
       <r>    10.7186     0.0000   576.0000 </r>
       <r>    10.8316     0.0000   576.0000 </r>
       <r>    10.9446     0.0000   576.0000 </r>
       <r>    11.0576     0.0000   576.0000 </r>
      </set>
     </set>
    </array>
   </total>
  </dos>
 </calculation>
 <structure name="finalpos" >
  <crystal>
   <varray name="basis" >
    <v>      11.20400236       0.00000000       0.00000000 </v>
    <v>       0.00000000      11.20400236       0.00000000 </v>
    <v>       0.00000000       0.00000000      11.20400236 </v>
   </varray>
   <i name="volume">   1406.43470641 </i>
   <varray name="rec_basis" >
    <v>       0.08925382       0.00000000       0.00000000 </v>
    <v>       0.00000000       0.08925382       0.00000000 </v>
    <v>       0.00000000       0.00000000       0.08925382 </v>
   </varray>
  </crystal>
  <varray name="positions" >
   <v>       0.00267761       0.00000000       0.00000000 </v>
   <v>       0.25000000       0.25000000       0.00000000 </v>
   <v>       0.25000000       0.00000000       0.25000000 </v>
   <v>       0.00267761       0.25000000       0.25000000 </v>
   <v>       0.00000000       0.00000000       0.50000000 </v>
   <v>       0.25000000       0.25000000       0.50000000 </v>
   <v>       0.25000000       0.00000000       0.75000000 </v>
   <v>       0.00000000       0.25000000       0.75000000 </v>
   <v>       0.00000000       0.50000000       0.00000000 </v>
   <v>       0.25000000       0.75000000       0.00000000 </v>
   <v>       0.25000000       0.50000000       0.25000000 </v>
   <v>       0.00000000       0.75000000       0.25000000 </v>
   <v>       0.00000000       0.50000000       0.50000000 </v>
   <v>       0.25000000       0.75000000       0.50000000 </v>
   <v>       0.25000000       0.50000000       0.75000000 </v>
   <v>       0.00000000       0.75000000       0.75000000 </v>
   <v>       0.50000000       0.00000000       0.00000000 </v>
   <v>       0.75000000       0.25000000       0.00000000 </v>
   <v>       0.75000000       0.00000000       0.25000000 </v>
   <v>       0.50000000       0.25000000       0.25000000 </v>
   <v>       0.50000000       0.00000000       0.50000000 </v>
   <v>       0.75000000       0.25000000       0.50000000 </v>
   <v>       0.75000000       0.00000000       0.75000000 </v>
   <v>       0.50000000       0.25000000       0.75000000 </v>
   <v>       0.50000000       0.50000000       0.00000000 </v>
   <v>       0.75000000       0.75000000       0.00000000 </v>
   <v>       0.75000000       0.50000000       0.25000000 </v>
   <v>       0.50000000       0.75000000       0.25000000 </v>
   <v>       0.50000000       0.50000000       0.50000000 </v>
   <v>       0.75000000       0.75000000       0.50000000 </v>
   <v>       0.75000000       0.50000000       0.75000000 </v>
   <v>       0.50000000       0.75000000       0.75000000 </v>
   <v>       0.25000000       0.25000000       0.25000000 </v>
   <v>       0.00000000       0.00000000       0.25000000 </v>
   <v>       0.00000000       0.25000000       0.00000000 </v>
   <v>       0.25000000       0.00000000       0.00000000 </v>
   <v>       0.25000000       0.25000000       0.75000000 </v>
   <v>       0.00000000       0.00000000       0.75000000 </v>
   <v>       0.00000000       0.25000000       0.50000000 </v>
   <v>       0.25000000       0.00000000       0.50000000 </v>
   <v>       0.25000000       0.75000000       0.25000000 </v>
   <v>       0.00000000       0.50000000       0.25000000 </v>
   <v>       0.00000000       0.75000000       0.00000000 </v>
   <v>       0.25000000       0.50000000       0.00000000 </v>
   <v>       0.25000000       0.75000000       0.75000000 </v>
   <v>       0.00000000       0.50000000       0.75000000 </v>
   <v>       0.00000000       0.75000000       0.50000000 </v>
   <v>       0.25000000       0.50000000       0.50000000 </v>
   <v>       0.75000000       0.25000000       0.25000000 </v>
   <v>       0.50000000       0.00000000       0.25000000 </v>
   <v>       0.50000000       0.25000000       0.00000000 </v>
   <v>       0.75000000       0.00000000       0.00000000 </v>
   <v>       0.75000000       0.25000000       0.75000000 </v>
   <v>       0.50000000       0.00000000       0.75000000 </v>
   <v>       0.50000000       0.25000000       0.50000000 </v>
   <v>       0.75000000       0.00000000       0.50000000 </v>
   <v>       0.75000000       0.75000000       0.25000000 </v>
   <v>       0.50000000       0.50000000       0.25000000 </v>
   <v>       0.50000000       0.75000000       0.00000000 </v>
   <v>       0.75000000       0.50000000       0.00000000 </v>
   <v>       0.75000000       0.75000000       0.75000000 </v>
   <v>       0.50000000       0.50000000       0.75000000 </v>
   <v>       0.50000000       0.75000000       0.50000000 </v>
   <v>       0.75000000       0.50000000       0.50000000 </v>
  </varray>
 </structure>
</modeling>
