  64  64   0   0
  0.2197554E+02  0.1120400E-08  0.1120400E-08  0.1120400E-08  0.5000000E-15
  1.000000000000000E-004
  CAR 
 unknown system                          
     11.06292417    -22.84516160  301     -0.55059521      1.00000000
    -22.845  0.0000E+00  0.0000E+00
    -22.732  0.0000E+00  0.0000E+00
    -22.619  0.0000E+00  0.0000E+00
    -22.506  0.0000E+00  0.0000E+00
    -22.393  0.0000E+00  0.0000E+00
    -22.280  0.0000E+00  0.0000E+00
    -22.167  0.0000E+00  0.0000E+00
    -22.054  0.0000E+00  0.0000E+00
    -21.941  0.0000E+00  0.0000E+00
    -21.828  0.0000E+00  0.0000E+00
    -21.715  0.0000E+00  0.0000E+00
    -21.602  0.0000E+00  0.0000E+00
    -21.489  0.0000E+00  0.0000E+00
    -21.376  0.4927E-05  0.5568E-06
    -21.263  0.1469E+04  0.1660E+03
    -21.150  0.2299E+03  0.1920E+03
    -21.037  0.0000E+00  0.1920E+03
    -20.924  0.0000E+00  0.1920E+03
    -20.811  0.0000E+00  0.1920E+03
    -20.698  0.0000E+00  0.1920E+03
    -20.585  0.0000E+00  0.1920E+03
    -20.472  0.0000E+00  0.1920E+03
    -20.359  0.0000E+00  0.1920E+03
    -20.246  0.0000E+00  0.1920E+03
    -20.133  0.0000E+00  0.1920E+03
    -20.019  0.0000E+00  0.1920E+03
    -19.906  0.0000E+00  0.1920E+03
    -19.793  0.0000E+00  0.1920E+03
    -19.680  0.0000E+00  0.1920E+03
    -19.567  0.0000E+00  0.1920E+03
    -19.454  0.0000E+00  0.1920E+03
    -19.341  0.0000E+00  0.1920E+03
    -19.228  0.0000E+00  0.1920E+03
    -19.115  0.0000E+00  0.1920E+03
    -19.002  0.0000E+00  0.1920E+03
    -18.889  0.0000E+00  0.1920E+03
    -18.776  0.0000E+00  0.1920E+03
    -18.663  0.0000E+00  0.1920E+03
    -18.550  0.0000E+00  0.1920E+03
    -18.437  0.0000E+00  0.1920E+03
    -18.324  0.0000E+00  0.1920E+03
    -18.211  0.0000E+00  0.1920E+03
    -18.098  0.0000E+00  0.1920E+03
    -17.985  0.0000E+00  0.1920E+03
    -17.872  0.0000E+00  0.1920E+03
    -17.759  0.0000E+00  0.1920E+03
    -17.646  0.0000E+00  0.1920E+03
    -17.533  0.0000E+00  0.1920E+03
    -17.420  0.0000E+00  0.1920E+03
    -17.307  0.0000E+00  0.1920E+03
    -17.194  0.0000E+00  0.1920E+03
    -17.081  0.0000E+00  0.1920E+03
    -16.968  0.0000E+00  0.1920E+03
    -16.855  0.0000E+00  0.1920E+03
    -16.742  0.0000E+00  0.1920E+03
    -16.629  0.0000E+00  0.1920E+03
    -16.516  0.0000E+00  0.1920E+03
    -16.403  0.0000E+00  0.1920E+03
    -16.290  0.0000E+00  0.1920E+03
    -16.177  0.0000E+00  0.1920E+03
    -16.064  0.0000E+00  0.1920E+03
    -15.951  0.0000E+00  0.1920E+03
    -15.837  0.0000E+00  0.1920E+03
    -15.724  0.0000E+00  0.1920E+03
    -15.611  0.0000E+00  0.1920E+03
    -15.498  0.0000E+00  0.1920E+03
    -15.385  0.0000E+00  0.1920E+03
    -15.272  0.0000E+00  0.1920E+03
    -15.159  0.0000E+00  0.1920E+03
    -15.046  0.0000E+00  0.1920E+03
    -14.933  0.0000E+00  0.1920E+03
    -14.820  0.0000E+00  0.1920E+03
    -14.707  0.0000E+00  0.1920E+03
    -14.594  0.0000E+00  0.1920E+03
    -14.481  0.0000E+00  0.1920E+03
    -14.368  0.0000E+00  0.1920E+03
    -14.255  0.0000E+00  0.1920E+03
    -14.142  0.0000E+00  0.1920E+03
    -14.029  0.0000E+00  0.1920E+03
    -13.916  0.0000E+00  0.1920E+03
    -13.803  0.0000E+00  0.1920E+03
    -13.690  0.0000E+00  0.1920E+03
    -13.577  0.0000E+00  0.1920E+03
    -13.464  0.8018E-13  0.1920E+03
    -13.351  0.1536E+01  0.1922E+03
    -13.238  0.2291E+02  0.1948E+03
    -13.125  0.4768E+02  0.2002E+03
    -13.012  0.1351E+03  0.2154E+03
    -12.899  0.3572E+03  0.2558E+03
    -12.786  0.1826E+01  0.2560E+03
    -12.673  0.0000E+00  0.2560E+03
    -12.560  0.0000E+00  0.2560E+03
    -12.447  0.0000E+00  0.2560E+03
    -12.334  0.0000E+00  0.2560E+03
    -12.221  0.0000E+00  0.2560E+03
    -12.108  0.0000E+00  0.2560E+03
    -11.995  0.0000E+00  0.2560E+03
    -11.882  0.0000E+00  0.2560E+03
    -11.769  0.0000E+00  0.2560E+03
    -11.655  0.0000E+00  0.2560E+03
    -11.542  0.0000E+00  0.2560E+03
    -11.429  0.0000E+00  0.2560E+03
    -11.316  0.0000E+00  0.2560E+03
    -11.203  0.0000E+00  0.2560E+03
    -11.090  0.0000E+00  0.2560E+03
    -10.977  0.0000E+00  0.2560E+03
    -10.864  0.0000E+00  0.2560E+03
    -10.751  0.0000E+00  0.2560E+03
    -10.638  0.0000E+00  0.2560E+03
    -10.525  0.0000E+00  0.2560E+03
    -10.412  0.0000E+00  0.2560E+03
    -10.299  0.0000E+00  0.2560E+03
    -10.186  0.0000E+00  0.2560E+03
    -10.073  0.0000E+00  0.2560E+03
     -9.960  0.0000E+00  0.2560E+03
     -9.847  0.0000E+00  0.2560E+03
     -9.734  0.0000E+00  0.2560E+03
     -9.621  0.0000E+00  0.2560E+03
     -9.508  0.0000E+00  0.2560E+03
     -9.395  0.0000E+00  0.2560E+03
     -9.282  0.0000E+00  0.2560E+03
     -9.169  0.0000E+00  0.2560E+03
     -9.056  0.0000E+00  0.2560E+03
     -8.943  0.0000E+00  0.2560E+03
     -8.830  0.0000E+00  0.2560E+03
     -8.717  0.0000E+00  0.2560E+03
     -8.604  0.0000E+00  0.2560E+03
     -8.491  0.0000E+00  0.2560E+03
     -8.378  0.0000E+00  0.2560E+03
     -8.265  0.0000E+00  0.2560E+03
     -8.152  0.0000E+00  0.2560E+03
     -8.039  0.0000E+00  0.2560E+03
     -7.926  0.0000E+00  0.2560E+03
     -7.813  0.0000E+00  0.2560E+03
     -7.700  0.0000E+00  0.2560E+03
     -7.587  0.0000E+00  0.2560E+03
     -7.473  0.0000E+00  0.2560E+03
     -7.360  0.0000E+00  0.2560E+03
     -7.247  0.0000E+00  0.2560E+03
     -7.134  0.0000E+00  0.2560E+03
     -7.021  0.0000E+00  0.2560E+03
     -6.908  0.0000E+00  0.2560E+03
     -6.795  0.0000E+00  0.2560E+03
     -6.682  0.0000E+00  0.2560E+03
     -6.569  0.0000E+00  0.2560E+03
     -6.456  0.0000E+00  0.2560E+03
     -6.343  0.0000E+00  0.2560E+03
     -6.230  0.0000E+00  0.2560E+03
     -6.117  0.0000E+00  0.2560E+03
     -6.004  0.0000E+00  0.2560E+03
     -5.891  0.0000E+00  0.2560E+03
     -5.778  0.0000E+00  0.2560E+03
     -5.665  0.0000E+00  0.2560E+03
     -5.552  0.0000E+00  0.2560E+03
     -5.439  0.0000E+00  0.2560E+03
     -5.326  0.0000E+00  0.2560E+03
     -5.213  0.0000E+00  0.2560E+03
     -5.100  0.0000E+00  0.2560E+03
     -4.987  0.0000E+00  0.2560E+03
     -4.874  0.0000E+00  0.2560E+03
     -4.761  0.0000E+00  0.2560E+03
     -4.648  0.0000E+00  0.2560E+03
     -4.535  0.0000E+00  0.2560E+03
     -4.422  0.0000E+00  0.2560E+03
     -4.309  0.0000E+00  0.2560E+03
     -4.196  0.0000E+00  0.2560E+03
     -4.083  0.0000E+00  0.2560E+03
     -3.970  0.0000E+00  0.2560E+03
     -3.857  0.0000E+00  0.2560E+03
     -3.744  0.0000E+00  0.2560E+03
     -3.631  0.0000E+00  0.2560E+03
     -3.518  0.0000E+00  0.2560E+03
     -3.405  0.0000E+00  0.2560E+03
     -3.291  0.0000E+00  0.2560E+03
     -3.178  0.0000E+00  0.2560E+03
     -3.065  0.0000E+00  0.2560E+03
     -2.952  0.0000E+00  0.2560E+03
     -2.839  0.0000E+00  0.2560E+03
     -2.726  0.2768E+00  0.2560E+03
     -2.613  0.8571E+01  0.2570E+03
     -2.500  0.3261E+02  0.2607E+03
     -2.387  0.7824E+02  0.2695E+03
     -2.274  0.8728E+02  0.2794E+03
     -2.161  0.1522E+03  0.2966E+03
     -2.048  0.6769E+02  0.3043E+03
     -1.935  0.5925E+02  0.3109E+03
     -1.822  0.6748E+02  0.3186E+03
     -1.709  0.6348E+02  0.3257E+03
     -1.596  0.2172E-08  0.3258E+03
     -1.483  0.9154E+02  0.3361E+03
     -1.370  0.1805E+03  0.3565E+03
     -1.257  0.2079E+02  0.3588E+03
     -1.144  0.2630E+03  0.3886E+03
     -1.031  0.1312E+03  0.4034E+03
     -0.918  0.2628E+03  0.4331E+03
     -0.805  0.5918E+02  0.4398E+03
     -0.692  0.6613E+02  0.4473E+03
     -0.579  0.6458E+01  0.4480E+03
     -0.466  0.0000E+00  0.4480E+03
     -0.353  0.0000E+00  0.4480E+03
     -0.240  0.0000E+00  0.4480E+03
     -0.127  0.0000E+00  0.4480E+03
     -0.014  0.0000E+00  0.4480E+03
      0.099  0.0000E+00  0.4480E+03
      0.212  0.0000E+00  0.4480E+03
      0.325  0.0000E+00  0.4480E+03
      0.438  0.0000E+00  0.4480E+03
      0.551  0.0000E+00  0.4480E+03
      0.664  0.0000E+00  0.4480E+03
      0.777  0.0000E+00  0.4480E+03
      0.890  0.0000E+00  0.4480E+03
      1.004  0.0000E+00  0.4480E+03
      1.117  0.0000E+00  0.4480E+03
      1.230  0.0000E+00  0.4480E+03
      1.343  0.0000E+00  0.4480E+03
      1.456  0.0000E+00  0.4480E+03
      1.569  0.0000E+00  0.4480E+03
      1.682  0.0000E+00  0.4480E+03
      1.795  0.0000E+00  0.4480E+03
      1.908  0.0000E+00  0.4480E+03
      2.021  0.0000E+00  0.4480E+03
      2.134  0.0000E+00  0.4480E+03
      2.247  0.0000E+00  0.4480E+03
      2.360  0.0000E+00  0.4480E+03
      2.473  0.0000E+00  0.4480E+03
      2.586  0.0000E+00  0.4480E+03
      2.699  0.0000E+00  0.4480E+03
      2.812  0.0000E+00  0.4480E+03
      2.925  0.0000E+00  0.4480E+03
      3.038  0.0000E+00  0.4480E+03
      3.151  0.0000E+00  0.4480E+03
      3.264  0.0000E+00  0.4480E+03
      3.377  0.0000E+00  0.4480E+03
      3.490  0.0000E+00  0.4480E+03
      3.603  0.0000E+00  0.4480E+03
      3.716  0.0000E+00  0.4480E+03
      3.829  0.0000E+00  0.4480E+03
      3.942  0.0000E+00  0.4480E+03
      4.055  0.0000E+00  0.4480E+03
      4.168  0.0000E+00  0.4480E+03
      4.281  0.3328E-04  0.4480E+03
      4.394  0.2212E+01  0.4482E+03
      4.507  0.0000E+00  0.4482E+03
      4.620  0.0000E+00  0.4482E+03
      4.733  0.0000E+00  0.4482E+03
      4.846  0.0000E+00  0.4482E+03
      4.959  0.5746E-04  0.4483E+03
      5.072  0.1327E+02  0.4497E+03
      5.186  0.0000E+00  0.4498E+03
      5.299  0.0000E+00  0.4498E+03
      5.412  0.0000E+00  0.4498E+03
      5.525  0.3902E+01  0.4502E+03
      5.638  0.2264E+02  0.4527E+03
      5.751  0.1439E-06  0.4528E+03
      5.864  0.1748E+02  0.4547E+03
      5.977  0.2165E+00  0.4548E+03
      6.090  0.0000E+00  0.4548E+03
      6.203  0.0000E+00  0.4548E+03
      6.316  0.1631E-02  0.4548E+03
      6.429  0.1443E+02  0.4564E+03
      6.542  0.7683E+01  0.4573E+03
      6.655  0.4597E+02  0.4624E+03
      6.768  0.6019E+02  0.4692E+03
      6.881  0.5952E+02  0.4760E+03
      6.994  0.1277E+02  0.4774E+03
      7.107  0.7010E+00  0.4775E+03
      7.220  0.5467E+01  0.4781E+03
      7.333  0.1659E+01  0.4783E+03
      7.446  0.8253E+02  0.4876E+03
      7.559  0.1677E+03  0.5066E+03
      7.672  0.1446E+01  0.5068E+03
      7.785  0.2651E+02  0.5097E+03
      7.898  0.3202E+00  0.5098E+03
      8.011  0.5276E+02  0.5157E+03
      8.124  0.1257E-01  0.5158E+03
      8.237  0.1447E+02  0.5174E+03
      8.350  0.9168E+02  0.5277E+03
      8.463  0.7506E-05  0.5278E+03
      8.576  0.1538E+03  0.5451E+03
      8.689  0.5493E+01  0.5458E+03
      8.802  0.2576E-05  0.5458E+03
      8.915  0.8650E+02  0.5555E+03
      9.028  0.1215E+03  0.5693E+03
      9.141  0.2114E+01  0.5695E+03
      9.254  0.2930E+02  0.5728E+03
      9.368  0.1494E+02  0.5745E+03
      9.481  0.1696E+01  0.5747E+03
      9.594  0.1158E+02  0.5760E+03
      9.707  0.0000E+00  0.5760E+03
      9.820  0.0000E+00  0.5760E+03
      9.933  0.0000E+00  0.5760E+03
     10.046  0.0000E+00  0.5760E+03
     10.159  0.0000E+00  0.5760E+03
     10.272  0.0000E+00  0.5760E+03
     10.385  0.0000E+00  0.5760E+03
     10.498  0.0000E+00  0.5760E+03
     10.611  0.0000E+00  0.5760E+03
     10.724  0.0000E+00  0.5760E+03
     10.837  0.0000E+00  0.5760E+03
     10.950  0.0000E+00  0.5760E+03
     11.063  0.0000E+00  0.5760E+03
