       N       E                     dE             d eps       ncg     rms          rms(c)
DAV:   1     0.431703471689E+04    0.43170E+04   -0.17183E+05  3456   0.125E+03
DAV:   2     0.363410151877E+03   -0.39536E+04   -0.37633E+04  3840   0.367E+02
DAV:   3    -0.206226404690E+03   -0.56964E+03   -0.56538E+03  4192   0.155E+02
DAV:   4    -0.228194293595E+03   -0.21968E+02   -0.21866E+02  4160   0.330E+01
DAV:   5    -0.229007493657E+03   -0.81320E+00   -0.81185E+00  4384   0.616E+00    0.106E+01
DAV:   6    -0.224137448092E+03    0.48700E+01   -0.95152E+00  4256   0.533E+00    0.777E+00
DAV:   7    -0.223777441867E+03    0.36001E+00   -0.20502E+00  4704   0.233E+00    0.534E+00
DAV:   8    -0.223902598525E+03   -0.12516E+00   -0.26715E-01  4000   0.123E+00    0.140E+00
DAV:   9    -0.223897295823E+03    0.53027E-02   -0.11015E-02  4320   0.250E-01    0.600E-01
DAV:  10    -0.223901631761E+03   -0.43359E-02   -0.18087E-02  3968   0.215E-01    0.291E-01
DAV:  11    -0.223900897044E+03    0.73472E-03   -0.16678E-03  4288   0.741E-02    0.765E-02
DAV:  12    -0.223900866345E+03    0.30699E-04   -0.15482E-04  4544   0.217E-02    0.120E-02
DAV:  13    -0.223900873618E+03   -0.72730E-05   -0.10284E-05  4064   0.628E-03    0.635E-03
DAV:  14    -0.223900873543E+03    0.75081E-07   -0.68337E-07  4480   0.203E-03    0.109E-02
DAV:  15    -0.223900875484E+03   -0.19404E-05   -0.11087E-06  3328   0.171E-03    0.141E-03
DAV:  16    -0.223900875628E+03   -0.14444E-06   -0.18798E-08  3264   0.480E-04    0.542E-04
DAV:  17    -0.223900875589E+03    0.39290E-07   -0.12333E-08  2816   0.393E-04    0.420E-04
DAV:  18    -0.223900875674E+03   -0.85653E-07   -0.43377E-09  2304   0.237E-04    0.168E-04
DAV:  19    -0.223900875641E+03    0.33666E-07   -0.10995E-09  2304   0.107E-04    0.774E-05
DAV:  20    -0.223900875633E+03    0.80254E-08   -0.34938E-10  2304   0.107E-04
   1 F= -.22390088E+03 E0= -.22390088E+03  d E =-.285032E-16
