<?xml version="1.0" encoding="ISO-8859-1"?>
<modeling>
 <generator>
  <i name="program" type="string">vasp </i>
  <i name="version" type="string">6.3.2  </i>
  <i name="subversion" type="string">27Jun22 (build Oct 14 2022 12:13:54) complex                          parallel </i>
  <i name="platform" type="string">LinuxIFC </i>
  <i name="date" type="string">2025 08 28 </i>
  <i name="time" type="string">22:00:26 </i>
 </generator>
 <incar>
  <i type="string" name="PREC">Accurate</i>
  <i type="int" name="IALGO">    38</i>
  <i type="logical" name="ADDGRID"> T  </i>
  <i type="int" name="NELMIN">     5</i>
  <i type="int" name="IBRION">    -1</i>
  <i name="EDIFF">      0.00000001</i>
  <i name="ENCUT">    341.21360000</i>
  <i type="logical" name="LREAL"> F  </i>
  <i type="int" name="ISMEAR">     0</i>
  <i name="SIGMA">      0.02000000</i>
  <i type="logical" name="LWAVE"> F  </i>
  <i type="logical" name="LCHARG"> F  </i>
  <i type="string" name="GGA">PS</i>
 </incar>
 <primitive_cell>
  <structure name="primitive_cell" >
   <crystal>
    <varray name="basis" >
     <v>      11.20400236       0.00000000       0.00000000 </v>
     <v>       0.00000000      11.20400236       0.00000000 </v>
     <v>       0.00000000       0.00000000      11.20400236 </v>
    </varray>
    <i name="volume">   1406.43470641 </i>
    <varray name="rec_basis" >
     <v>       0.08925382       0.00000000       0.00000000 </v>
     <v>       0.00000000       0.08925382       0.00000000 </v>
     <v>       0.00000000       0.00000000       0.08925382 </v>
    </varray>
   </crystal>
   <varray name="positions" >
    <v>       0.00267761       0.00000000       0.00000000 </v>
    <v>       0.25000000       0.25000000       0.00000000 </v>
    <v>       0.25000000       0.00000000       0.25000000 </v>
    <v>       0.99732239       0.25000000       0.25000000 </v>
    <v>       0.00000000       0.00000000       0.50000000 </v>
    <v>       0.25000000       0.25000000       0.50000000 </v>
    <v>       0.25000000       0.00000000       0.75000000 </v>
    <v>       0.00000000       0.25000000       0.75000000 </v>
    <v>       0.00000000       0.50000000       0.00000000 </v>
    <v>       0.25000000       0.75000000       0.00000000 </v>
    <v>       0.25000000       0.50000000       0.25000000 </v>
    <v>       0.00000000       0.75000000       0.25000000 </v>
    <v>       0.00000000       0.50000000       0.50000000 </v>
    <v>       0.25000000       0.75000000       0.50000000 </v>
    <v>       0.25000000       0.50000000       0.75000000 </v>
    <v>       0.00000000       0.75000000       0.75000000 </v>
    <v>       0.50000000       0.00000000       0.00000000 </v>
    <v>       0.75000000       0.25000000       0.00000000 </v>
    <v>       0.75000000       0.00000000       0.25000000 </v>
    <v>       0.50000000       0.25000000       0.25000000 </v>
    <v>       0.50000000       0.00000000       0.50000000 </v>
    <v>       0.75000000       0.25000000       0.50000000 </v>
    <v>       0.75000000       0.00000000       0.75000000 </v>
    <v>       0.50000000       0.25000000       0.75000000 </v>
    <v>       0.50000000       0.50000000       0.00000000 </v>
    <v>       0.75000000       0.75000000       0.00000000 </v>
    <v>       0.75000000       0.50000000       0.25000000 </v>
    <v>       0.50000000       0.75000000       0.25000000 </v>
    <v>       0.50000000       0.50000000       0.50000000 </v>
    <v>       0.75000000       0.75000000       0.50000000 </v>
    <v>       0.75000000       0.50000000       0.75000000 </v>
    <v>       0.50000000       0.75000000       0.75000000 </v>
    <v>       0.25000000       0.25000000       0.25000000 </v>
    <v>       0.00000000       0.00000000       0.25000000 </v>
    <v>       0.00000000       0.25000000       0.00000000 </v>
    <v>       0.25000000       0.00000000       0.00000000 </v>
    <v>       0.25000000       0.25000000       0.75000000 </v>
    <v>       0.00000000       0.00000000       0.75000000 </v>
    <v>       0.00000000       0.25000000       0.50000000 </v>
    <v>       0.25000000       0.00000000       0.50000000 </v>
    <v>       0.25000000       0.75000000       0.25000000 </v>
    <v>       0.00000000       0.50000000       0.25000000 </v>
    <v>       0.00000000       0.75000000       0.00000000 </v>
    <v>       0.25000000       0.50000000       0.00000000 </v>
    <v>       0.25000000       0.75000000       0.75000000 </v>
    <v>       0.00000000       0.50000000       0.75000000 </v>
    <v>       0.00000000       0.75000000       0.50000000 </v>
    <v>       0.25000000       0.50000000       0.50000000 </v>
    <v>       0.75000000       0.25000000       0.25000000 </v>
    <v>       0.50000000       0.00000000       0.25000000 </v>
    <v>       0.50000000       0.25000000       0.00000000 </v>
    <v>       0.75000000       0.00000000       0.00000000 </v>
    <v>       0.75000000       0.25000000       0.75000000 </v>
    <v>       0.50000000       0.00000000       0.75000000 </v>
    <v>       0.50000000       0.25000000       0.50000000 </v>
    <v>       0.75000000       0.00000000       0.50000000 </v>
    <v>       0.75000000       0.75000000       0.25000000 </v>
    <v>       0.50000000       0.50000000       0.25000000 </v>
    <v>       0.50000000       0.75000000       0.00000000 </v>
    <v>       0.75000000       0.50000000       0.00000000 </v>
    <v>       0.75000000       0.75000000       0.75000000 </v>
    <v>       0.50000000       0.50000000       0.75000000 </v>
    <v>       0.50000000       0.75000000       0.50000000 </v>
    <v>       0.75000000       0.50000000       0.50000000 </v>
   </varray>
  </structure>
  <varray name="primitive_index" >
   <v type="int" >        1 </v>
   <v type="int" >        2 </v>
   <v type="int" >        3 </v>
   <v type="int" >        4 </v>
   <v type="int" >        5 </v>
   <v type="int" >        6 </v>
   <v type="int" >        7 </v>
   <v type="int" >        8 </v>
   <v type="int" >        9 </v>
   <v type="int" >       10 </v>
   <v type="int" >       11 </v>
   <v type="int" >       12 </v>
   <v type="int" >       13 </v>
   <v type="int" >       14 </v>
   <v type="int" >       15 </v>
   <v type="int" >       16 </v>
   <v type="int" >       17 </v>
   <v type="int" >       18 </v>
   <v type="int" >       19 </v>
   <v type="int" >       20 </v>
   <v type="int" >       21 </v>
   <v type="int" >       22 </v>
   <v type="int" >       23 </v>
   <v type="int" >       24 </v>
   <v type="int" >       25 </v>
   <v type="int" >       26 </v>
   <v type="int" >       27 </v>
   <v type="int" >       28 </v>
   <v type="int" >       29 </v>
   <v type="int" >       30 </v>
   <v type="int" >       31 </v>
   <v type="int" >       32 </v>
   <v type="int" >       33 </v>
   <v type="int" >       34 </v>
   <v type="int" >       35 </v>
   <v type="int" >       36 </v>
   <v type="int" >       37 </v>
   <v type="int" >       38 </v>
   <v type="int" >       39 </v>
   <v type="int" >       40 </v>
   <v type="int" >       41 </v>
   <v type="int" >       42 </v>
   <v type="int" >       43 </v>
   <v type="int" >       44 </v>
   <v type="int" >       45 </v>
   <v type="int" >       46 </v>
   <v type="int" >       47 </v>
   <v type="int" >       48 </v>
   <v type="int" >       49 </v>
   <v type="int" >       50 </v>
   <v type="int" >       51 </v>
   <v type="int" >       52 </v>
   <v type="int" >       53 </v>
   <v type="int" >       54 </v>
   <v type="int" >       55 </v>
   <v type="int" >       56 </v>
   <v type="int" >       57 </v>
   <v type="int" >       58 </v>
   <v type="int" >       59 </v>
   <v type="int" >       60 </v>
   <v type="int" >       61 </v>
   <v type="int" >       62 </v>
   <v type="int" >       63 </v>
   <v type="int" >       64 </v>
  </varray>
 </primitive_cell>
 <kpoints>
  <generation param="Gamma">
   <v type="int" name="divisions">       2        2        2 </v>
   <v name="usershift">      0.00000000       0.00000000       0.00000000 </v>
   <v name="genvec1">      0.50000000       0.00000000       0.00000000 </v>
   <v name="genvec2">      0.00000000       0.50000000       0.00000000 </v>
   <v name="genvec3">      0.00000000       0.00000000       0.50000000 </v>
   <v name="shift">      0.00000000       0.00000000       0.00000000 </v>
  </generation>
  <varray name="kpointlist" >
   <v>       0.00000000       0.00000000       0.00000000 </v>
   <v>       0.50000000       0.00000000       0.00000000 </v>
   <v>       0.00000000       0.50000000       0.00000000 </v>
   <v>       0.50000000       0.50000000       0.00000000 </v>
   <v>       0.00000000       0.50000000       0.50000000 </v>
   <v>       0.50000000       0.50000000       0.50000000 </v>
  </varray>
  <varray name="weights" >
   <v>       0.12500000 </v>
   <v>       0.12500000 </v>
   <v>       0.25000000 </v>
   <v>       0.25000000 </v>
   <v>       0.12500000 </v>
   <v>       0.12500000 </v>
  </varray>
 </kpoints>
 <parameters>
  <separator name="general" >
   <i type="string" name="SYSTEM">unknown system</i>
   <i type="logical" name="LCOMPAT"> F  </i>
  </separator>
  <separator name="electronic" >
   <i type="string" name="PREC">accura</i>
   <i name="ENMAX">    341.21360000</i>
   <i name="ENAUG">    368.05600000</i>
   <i name="EDIFF">      0.00000001</i>
   <i type="int" name="IALGO">    38</i>
   <i type="int" name="IWAVPR">    10</i>
   <i type="int" name="NBANDS">   288</i>
   <i type="int" name="NBANDSLOW">    -1</i>
   <i type="int" name="NBANDSHIGH">    -1</i>
   <i name="NELECT">    448.00000000</i>
   <i type="int" name="TURBO">     0</i>
   <i type="int" name="IRESTART">     0</i>
   <i type="int" name="NREBOOT">     0</i>
   <i type="int" name="NMIN">     0</i>
   <i name="EREF">      0.00000000</i>
   <separator name="electronic smearing" >
    <i type="int" name="ISMEAR">     0</i>
    <i name="SIGMA">      0.02000000</i>
    <i name="KSPACING">      0.50000000</i>
    <i type="logical" name="KGAMMA"> T  </i>
    <i type="logical" name="KBLOWUP"> T  </i>
   </separator>
   <separator name="electronic projectors" >
    <i type="logical" name="LREAL"> F  </i>
    <v name="ROPT">      0.00000000      0.00000000</v>
    <i type="int" name="LMAXPAW">  -100</i>
    <i type="int" name="LMAXMIX">     2</i>
    <i type="logical" name="NLSPLINE"> F  </i>
   </separator>
   <separator name="electronic startup" >
    <i type="int" name="ISTART">     0</i>
    <i type="int" name="ICHARG">     2</i>
    <i type="int" name="INIWAV">     1</i>
   </separator>
   <separator name="electronic spin" >
    <i type="int" name="ISPIN">     1</i>
    <i type="logical" name="LNONCOLLINEAR"> F  </i>
    <v name="MAGMOM">      1.00000000      1.00000000      1.00000000      1.00000000      1.00000000      1.00000000      1.00000000      1.00000000      1.00000000      1.00000000      1.00000000      1.00000000      1.00000000      1.00000000      1.00000000      1.00000000      1.00000000      1.00000000      1.00000000      1.00000000
      1.00000000      1.00000000      1.00000000      1.00000000      1.00000000      1.00000000      1.00000000      1.00000000      1.00000000      1.00000000      1.00000000      1.00000000      1.00000000      1.00000000      1.00000000      1.00000000      1.00000000      1.00000000      1.00000000      1.00000000
      1.00000000      1.00000000      1.00000000      1.00000000      1.00000000      1.00000000      1.00000000      1.00000000      1.00000000      1.00000000      1.00000000      1.00000000      1.00000000      1.00000000      1.00000000      1.00000000      1.00000000      1.00000000      1.00000000      1.00000000
      1.00000000      1.00000000      1.00000000      1.00000000</v>
    <i name="NUPDOWN">     -1.00000000</i>
    <i type="logical" name="LSORBIT"> F  </i>
    <v name="SAXIS">      0.00000000      0.00000000      1.00000000</v>
    <i type="logical" name="LSPIRAL"> F  </i>
    <v name="QSPIRAL">      0.00000000      0.00000000      0.00000000</v>
    <i type="logical" name="LZEROZ"> F  </i>
   </separator>
   <separator name="electronic exchange-correlation" >
    <i type="logical" name="LASPH"> F  </i>
    <i type="logical" name="LMETAGGA"> F  </i>
   </separator>
   <separator name="electronic convergence" >
    <i type="int" name="NELM">    60</i>
    <i type="int" name="NELMDL">    -5</i>
    <i type="int" name="NELMIN">     5</i>
    <i name="ENINI">    341.21360000</i>
    <separator name="electronic convergence detail" >
     <i type="logical" name="LDIAG"> T  </i>
     <i type="logical" name="LSUBROT"> F  </i>
     <i name="WEIMIN">      0.00000000</i>
     <i name="EBREAK">      0.00000000</i>
     <i name="DEPER">      0.30000000</i>
     <i type="int" name="NRMM">     4</i>
     <i name="TIME">      0.40000000</i>
    </separator>
   </separator>
   <separator name="electronic mixer" >
    <i name="AMIX">      0.40000000</i>
    <i name="BMIX">      1.00000000</i>
    <i name="AMIN">      0.10000000</i>
    <i name="AMIX_MAG">      1.60000000</i>
    <i name="BMIX_MAG">      1.00000000</i>
    <separator name="electronic mixer details" >
     <i type="int" name="IMIX">     4</i>
     <i type="logical" name="MIXFIRST"> F  </i>
     <i type="int" name="MAXMIX">   -45</i>
     <i name="WC">    100.00000000</i>
     <i type="int" name="INIMIX">     1</i>
     <i type="int" name="MIXPRE">     1</i>
     <i type="int" name="MREMOVE">     5</i>
    </separator>
   </separator>
   <separator name="electronic dipolcorrection" >
    <i type="logical" name="LDIPOL"> F  </i>
    <i type="logical" name="LMONO"> F  </i>
    <i type="int" name="IDIPOL">     0</i>
    <i name="EPSILON">      1.00000000</i>
    <v name="DIPOL">   -100.00000000   -100.00000000   -100.00000000</v>
    <i name="EFIELD">      0.00000000</i>
   </separator>
  </separator>
  <separator name="grids" >
   <i type="int" name="NGX">    70</i>
   <i type="int" name="NGY">    70</i>
   <i type="int" name="NGZ">    70</i>
   <i type="int" name="NGXF">   140</i>
   <i type="int" name="NGYF">   140</i>
   <i type="int" name="NGZF">   140</i>
   <i type="logical" name="ADDGRID"> T  </i>
  </separator>
  <separator name="ionic" >
   <i type="int" name="NSW">     0</i>
   <i type="int" name="IBRION">    -1</i>
   <i type="int" name="MDALGO">     0</i>
   <i type="int" name="ISIF">     2</i>
   <i name="PSTRESS">      0.00000000</i>
   <i name="EDIFFG">      0.00000010</i>
   <i type="int" name="NFREE">     0</i>
   <i name="POTIM">      0.50000000</i>
   <i name="SMASS">     -3.00000000</i>
   <i name="SCALEE">      1.00000000</i>
  </separator>
  <separator name="ionic md" >
   <i name="TEBEG">      0.00010000</i>
   <i name="TEEND">      0.00010000</i>
   <i type="int" name="NBLOCK">     1</i>
   <i type="int" name="KBLOCK">     1</i>
   <i type="int" name="NPACO">   256</i>
   <i name="APACO">     10.00000000</i>
  </separator>
  <separator name="symmetry" >
   <i type="int" name="ISYM">     2</i>
   <i name="SYMPREC">      0.00001000</i>
  </separator>
  <separator name="dos" >
   <i type="int" name="LORBIT">     0</i>
   <v name="RWIGS">     -1.00000000     -1.00000000</v>
   <i type="int" name="NEDOS">   301</i>
   <i name="EMIN">     10.00000000</i>
   <i name="EMAX">    -10.00000000</i>
   <i name="EFERMI">      0.00000000</i>
  </separator>
  <separator name="writing" >
   <i type="int" name="NWRITE">     2</i>
   <i type="logical" name="LWAVE"> F  </i>
   <i type="logical" name="LDOWNSAMPLE"> F  </i>
   <i type="logical" name="LCHARG"> F  </i>
   <i type="logical" name="LPARD"> F  </i>
   <i type="logical" name="LVTOT"> F  </i>
   <i type="logical" name="LVHAR"> F  </i>
   <i type="logical" name="LELF"> F  </i>
   <i type="logical" name="LOPTICS"> F  </i>
   <v name="STM">      0.00000000      0.00000000      0.00000000      0.00000000      0.00000000      0.00000000      0.00000000</v>
  </separator>
  <separator name="performance" >
   <i type="int" name="NPAR">    32</i>
   <i type="int" name="NSIM">     4</i>
   <i type="int" name="NBLK">    -1</i>
   <i type="logical" name="LPLANE"> T  </i>
   <i type="logical" name="LSCALAPACK"> T  </i>
   <i type="logical" name="LSCAAWARE"> F  </i>
   <i type="logical" name="LSCALU"> F  </i>
   <i type="logical" name="LASYNC"> F  </i>
   <i type="logical" name="LORBITALREAL"> F  </i>
  </separator>
  <separator name="miscellaneous" >
   <i type="int" name="IDIOT">     3</i>
   <i type="int" name="PHON_NSTRUCT">    -1</i>
   <i type="logical" name="LMUSIC"> F  </i>
   <v name="POMASS">     22.99000000     35.45300000</v>
   <v name="DARWINR">      0.00000000      0.00000000</v>
   <v name="DARWINV">      1.00000000      1.00000000</v>
   <i type="logical" name="LCORR"> T  </i>
  </separator>
  <i type="logical" name="GGA_COMPAT"> T  </i>
  <i type="logical" name="LBERRY"> F  </i>
  <i type="int" name="ICORELEVEL">     0</i>
  <i type="logical" name="LDAU"> F  </i>
  <i type="int" name="I_CONSTRAINED_M">     0</i>
  <separator name="electronic exchange-correlation" >
   <i type="string" name="GGA">PS</i>
   <i type="int" name="VOSKOWN">     0</i>
   <i type="logical" name="LHFCALC"> F  </i>
   <i type="string" name="PRECFOCK"></i>
   <i type="logical" name="LSYMGRAD"> F  </i>
   <i type="logical" name="LHFONE"> F  </i>
   <i type="logical" name="LRHFCALC"> F  </i>
   <i type="logical" name="LTHOMAS"> F  </i>
   <i type="logical" name="LMODELHF"> F  </i>
   <i type="logical" name="LFOCKACE"> F  </i>
   <i name="ENCUT4O">     -1.00000000</i>
   <i type="int" name="EXXOEP">     0</i>
   <i type="int" name="FOURORBIT">     0</i>
   <i name="AEXX">      0.00000000</i>
   <i name="HFALPHA">      0.00000000</i>
   <i name="MCALPHA">      0.00000000</i>
   <i name="ALDAX">      1.00000000</i>
   <i name="AGGAX">      1.00000000</i>
   <i name="ALDAC">      1.00000000</i>
   <i name="AGGAC">      1.00000000</i>
   <i type="int" name="NKREDX">     1</i>
   <i type="int" name="NKREDY">     1</i>
   <i type="int" name="NKREDZ">     1</i>
   <i type="logical" name="SHIFTRED"> F  </i>
   <i type="logical" name="ODDONLY"> F  </i>
   <i type="logical" name="EVENONLY"> F  </i>
   <i type="int" name="LMAXFOCK">     0</i>
   <i type="int" name="NMAXFOCKAE">     0</i>
   <i type="logical" name="LFOCKAEDFT"> F  </i>
   <i name="HFSCREEN">      0.00000000</i>
   <i name="HFSCREENC">      0.00000000</i>
   <i type="int" name="NBANDSGWLOW">     0</i>
  </separator>
  <separator name="vdW DFT" >
   <i type="logical" name="LUSE_VDW"> F  </i>
   <i name="Zab_VDW">     -0.84910000</i>
   <i name="PARAM1">      0.12340000</i>
   <i name="PARAM2">      1.00000000</i>
   <i name="PARAM3">      0.00000000</i>
  </separator>
  <separator name="model GW" >
   <i type="int" name="MODEL_GW">     0</i>
   <i name="MODEL_EPS0">     13.18532537</i>
   <i name="MODEL_ALPHA">      1.00000000</i>
  </separator>
  <separator name="linear response parameters" >
   <i type="logical" name="LEPSILON"> F  </i>
   <i type="logical" name="LRPA"> F  </i>
   <i type="logical" name="LNABLA"> F  </i>
   <i type="logical" name="LVEL"> F  </i>
   <i name="CSHIFT">      0.10000000</i>
   <i name="OMEGAMAX">     -1.00000000</i>
   <i name="DEG_THRESHOLD">      0.00200000</i>
   <i name="RTIME">     -0.10000000</i>
   <i name="WPLASMAI">      0.00000000</i>
   <v name="DFIELD">      0.00000000      0.00000000      0.00000000</v>
   <v name="WPLASMA">      0.00000000      0.00000000      0.00000000      0.00000000      0.00000000      0.00000000      0.00000000      0.00000000      0.00000000</v>
  </separator>
  <separator name="orbital magnetization" >
   <i type="logical" name="NUCIND"> F  </i>
   <v name="MAGPOS">      0.00000000      0.00000000      0.00000000</v>
   <i type="logical" name="LNICSALL"> T  </i>
   <i type="logical" name="ORBITALMAG"> F  </i>
   <i type="logical" name="LMAGBLOCH"> F  </i>
   <i type="logical" name="LCHIMAG"> F  </i>
   <i type="logical" name="LGAUGE"> T  </i>
   <i type="int" name="MAGATOM">     0</i>
   <v name="MAGDIPOL">      0.00000000      0.00000000      0.00000000</v>
   <v name="AVECCONST">      0.00000000      0.00000000      0.00000000</v>
  </separator>
  <separator name="response functions" >
   <i type="logical" name="LFINITE_TEMPERATURE"> F  </i>
   <i type="logical" name="LADDER"> F  </i>
   <i type="logical" name="LRPAFORCE"> F  </i>
   <i type="logical" name="LFXC"> F  </i>
   <i type="logical" name="LHARTREE"> T  </i>
   <i type="int" name="IBSE">     0</i>
   <v type="int" name="KPOINT">    -1     0     0     0</v>
   <i type="logical" name="LTCTC"> F  </i>
   <i type="logical" name="LTCTE"> F  </i>
   <i type="logical" name="LTETE"> F  </i>
   <i type="logical" name="LTRIPLET"> F  </i>
   <i type="logical" name="LFXCEPS"> F  </i>
   <i type="logical" name="LFXHEG"> F  </i>
   <i type="int" name="NATURALO">     2</i>
   <i type="logical" name="LHOLEGF"> F  </i>
   <i type="logical" name="L2ORDER"> F  </i>
   <i type="logical" name="LDMP1"> F  </i>
   <i type="logical" name="LMP2LT"> F  </i>
   <i type="logical" name="LSMP2LT"> F  </i>
   <i type="logical" name="LGWLF"> F  </i>
   <i name="ENCUTGW">     -2.00000000</i>
   <i name="ENCUTGWSOFT">     -2.00000000</i>
   <i name="ENCUTLF">     -1.00000000</i>
   <i type="logical" name="LESF_SPLINES"> F  </i>
   <i type="int" name="LMAXMP2">    -1</i>
   <i name="SCISSOR">      0.00000000</i>
   <i type="int" name="NOMEGA">     0</i>
   <i type="int" name="NOMEGAR">     0</i>
   <i type="int" name="NBANDSGW">    -1</i>
   <i type="int" name="NBANDSO">    -1</i>
   <i type="int" name="NBANDSV">    -1</i>
   <i type="int" name="NELMGW">     1</i>
   <i type="int" name="NELMHF">     1</i>
   <i type="int" name="DIM">     3</i>
   <i type="int" name="IESPILON">     4</i>
   <i type="int" name="ANTIRES">     0</i>
   <i name="OMEGAMAX">    -30.00000000</i>
   <i name="OMEGAMIN">    -30.00000000</i>
   <i name="OMEGATL">   -200.00000000</i>
   <i type="int" name="OMEGAGRID">     0</i>
   <i name="CSHIFT">     -0.10000000</i>
   <i type="logical" name="LSELFENERGY"> F  </i>
   <i type="logical" name="LSPECTRAL"> F  </i>
   <i type="logical" name="LSPECTRALGW"> F  </i>
   <i type="logical" name="LSINGLES"> F  </i>
   <i type="logical" name="LFERMIGW"> F  </i>
   <i type="logical" name="ODDONLYGW"> F  </i>
   <i type="logical" name="EVENONLYGW"> F  </i>
   <i type="int" name="NKREDLFX">     1</i>
   <i type="int" name="NKREDLFY">     1</i>
   <i type="int" name="NKREDLFZ">     1</i>
   <i type="int" name="MAXMEM">  2800</i>
   <i type="int" name="TELESCOPE">     0</i>
   <i type="int" name="NTAUPAR">    -1</i>
   <i type="int" name="NOMEGAPAR">    -1</i>
   <i name="DAMP_NEWTON">      0.80000001</i>
   <i name="LAMBDA">      1.00000000</i>
  </separator>
  <separator name="External order field" >
   <i name="OFIELD_KAPPA">      0.00000000</i>
   <v name="OFIELD_K">      0.00000000      0.00000000      0.00000000</v>
   <i name="OFIELD_Q6_NEAR">      0.00000000</i>
   <i name="OFIELD_Q6_FAR">      0.00000000</i>
   <i name="OFIELD_A">      0.00000000</i>
  </separator>
  <separator name="optional k-points parameters" >
   <i type="int" name="KPOINTS_OPT_MODE">     1</i>
   <i type="logical" name="LKPOINTS_OPT"> F  </i>
  </separator>
 </parameters>
 <atominfo>
  <atoms>      64 </atoms>
  <types>       2 </types>
  <array name="atoms" >
   <dimension dim="1">ion</dimension>
   <field type="string">element</field>
   <field type="int">atomtype</field>
   <set>
    <rc><c>Na</c><c>   1</c></rc>
    <rc><c>Na</c><c>   1</c></rc>
    <rc><c>Na</c><c>   1</c></rc>
    <rc><c>Na</c><c>   1</c></rc>
    <rc><c>Na</c><c>   1</c></rc>
    <rc><c>Na</c><c>   1</c></rc>
    <rc><c>Na</c><c>   1</c></rc>
    <rc><c>Na</c><c>   1</c></rc>
    <rc><c>Na</c><c>   1</c></rc>
    <rc><c>Na</c><c>   1</c></rc>
    <rc><c>Na</c><c>   1</c></rc>
    <rc><c>Na</c><c>   1</c></rc>
    <rc><c>Na</c><c>   1</c></rc>
    <rc><c>Na</c><c>   1</c></rc>
    <rc><c>Na</c><c>   1</c></rc>
    <rc><c>Na</c><c>   1</c></rc>
    <rc><c>Na</c><c>   1</c></rc>
    <rc><c>Na</c><c>   1</c></rc>
    <rc><c>Na</c><c>   1</c></rc>
    <rc><c>Na</c><c>   1</c></rc>
    <rc><c>Na</c><c>   1</c></rc>
    <rc><c>Na</c><c>   1</c></rc>
    <rc><c>Na</c><c>   1</c></rc>
    <rc><c>Na</c><c>   1</c></rc>
    <rc><c>Na</c><c>   1</c></rc>
    <rc><c>Na</c><c>   1</c></rc>
    <rc><c>Na</c><c>   1</c></rc>
    <rc><c>Na</c><c>   1</c></rc>
    <rc><c>Na</c><c>   1</c></rc>
    <rc><c>Na</c><c>   1</c></rc>
    <rc><c>Na</c><c>   1</c></rc>
    <rc><c>Na</c><c>   1</c></rc>
    <rc><c>Cl</c><c>   2</c></rc>
    <rc><c>Cl</c><c>   2</c></rc>
    <rc><c>Cl</c><c>   2</c></rc>
    <rc><c>Cl</c><c>   2</c></rc>
    <rc><c>Cl</c><c>   2</c></rc>
    <rc><c>Cl</c><c>   2</c></rc>
    <rc><c>Cl</c><c>   2</c></rc>
    <rc><c>Cl</c><c>   2</c></rc>
    <rc><c>Cl</c><c>   2</c></rc>
    <rc><c>Cl</c><c>   2</c></rc>
    <rc><c>Cl</c><c>   2</c></rc>
    <rc><c>Cl</c><c>   2</c></rc>
    <rc><c>Cl</c><c>   2</c></rc>
    <rc><c>Cl</c><c>   2</c></rc>
    <rc><c>Cl</c><c>   2</c></rc>
    <rc><c>Cl</c><c>   2</c></rc>
    <rc><c>Cl</c><c>   2</c></rc>
    <rc><c>Cl</c><c>   2</c></rc>
    <rc><c>Cl</c><c>   2</c></rc>
    <rc><c>Cl</c><c>   2</c></rc>
    <rc><c>Cl</c><c>   2</c></rc>
    <rc><c>Cl</c><c>   2</c></rc>
    <rc><c>Cl</c><c>   2</c></rc>
    <rc><c>Cl</c><c>   2</c></rc>
    <rc><c>Cl</c><c>   2</c></rc>
    <rc><c>Cl</c><c>   2</c></rc>
    <rc><c>Cl</c><c>   2</c></rc>
    <rc><c>Cl</c><c>   2</c></rc>
    <rc><c>Cl</c><c>   2</c></rc>
    <rc><c>Cl</c><c>   2</c></rc>
    <rc><c>Cl</c><c>   2</c></rc>
    <rc><c>Cl</c><c>   2</c></rc>
   </set>
  </array>
  <array name="atomtypes" >
   <dimension dim="1">type</dimension>
   <field type="int">atomspertype</field>
   <field type="string">element</field>
   <field>mass</field>
   <field>valence</field>
   <field type="string">pseudopotential</field>
   <set>
    <rc><c>  32</c><c>Na</c><c>     22.99000000</c><c>      7.00000000</c><c>  PAW_PBE Na_pv 19Sep2006               </c></rc>
    <rc><c>  32</c><c>Cl</c><c>     35.45300000</c><c>      7.00000000</c><c>  PAW_PBE Cl 06Sep2000                  </c></rc>
   </set>
  </array>
 </atominfo>
 <structure name="initialpos" >
  <crystal>
   <varray name="basis" >
    <v>      11.20400236       0.00000000       0.00000000 </v>
    <v>       0.00000000      11.20400236       0.00000000 </v>
    <v>       0.00000000       0.00000000      11.20400236 </v>
   </varray>
   <i name="volume">   1406.43470641 </i>
   <varray name="rec_basis" >
    <v>       0.08925382       0.00000000       0.00000000 </v>
    <v>       0.00000000       0.08925382       0.00000000 </v>
    <v>       0.00000000       0.00000000       0.08925382 </v>
   </varray>
  </crystal>
  <varray name="positions" >
   <v>       0.00267761       0.00000000       0.00000000 </v>
   <v>       0.25000000       0.25000000       0.00000000 </v>
   <v>       0.25000000       0.00000000       0.25000000 </v>
   <v>       0.99732239       0.25000000       0.25000000 </v>
   <v>       0.00000000       0.00000000       0.50000000 </v>
   <v>       0.25000000       0.25000000       0.50000000 </v>
   <v>       0.25000000       0.00000000       0.75000000 </v>
   <v>       0.00000000       0.25000000       0.75000000 </v>
   <v>       0.00000000       0.50000000       0.00000000 </v>
   <v>       0.25000000       0.75000000       0.00000000 </v>
   <v>       0.25000000       0.50000000       0.25000000 </v>
   <v>       0.00000000       0.75000000       0.25000000 </v>
   <v>       0.00000000       0.50000000       0.50000000 </v>
   <v>       0.25000000       0.75000000       0.50000000 </v>
   <v>       0.25000000       0.50000000       0.75000000 </v>
   <v>       0.00000000       0.75000000       0.75000000 </v>
   <v>       0.50000000       0.00000000       0.00000000 </v>
   <v>       0.75000000       0.25000000       0.00000000 </v>
   <v>       0.75000000       0.00000000       0.25000000 </v>
   <v>       0.50000000       0.25000000       0.25000000 </v>
   <v>       0.50000000       0.00000000       0.50000000 </v>
   <v>       0.75000000       0.25000000       0.50000000 </v>
   <v>       0.75000000       0.00000000       0.75000000 </v>
   <v>       0.50000000       0.25000000       0.75000000 </v>
   <v>       0.50000000       0.50000000       0.00000000 </v>
   <v>       0.75000000       0.75000000       0.00000000 </v>
   <v>       0.75000000       0.50000000       0.25000000 </v>
   <v>       0.50000000       0.75000000       0.25000000 </v>
   <v>       0.50000000       0.50000000       0.50000000 </v>
   <v>       0.75000000       0.75000000       0.50000000 </v>
   <v>       0.75000000       0.50000000       0.75000000 </v>
   <v>       0.50000000       0.75000000       0.75000000 </v>
   <v>       0.25000000       0.25000000       0.25000000 </v>
   <v>       0.00000000       0.00000000       0.25000000 </v>
   <v>       0.00000000       0.25000000       0.00000000 </v>
   <v>       0.25000000       0.00000000       0.00000000 </v>
   <v>       0.25000000       0.25000000       0.75000000 </v>
   <v>       0.00000000       0.00000000       0.75000000 </v>
   <v>       0.00000000       0.25000000       0.50000000 </v>
   <v>       0.25000000       0.00000000       0.50000000 </v>
   <v>       0.25000000       0.75000000       0.25000000 </v>
   <v>       0.00000000       0.50000000       0.25000000 </v>
   <v>       0.00000000       0.75000000       0.00000000 </v>
   <v>       0.25000000       0.50000000       0.00000000 </v>
   <v>       0.25000000       0.75000000       0.75000000 </v>
   <v>       0.00000000       0.50000000       0.75000000 </v>
   <v>       0.00000000       0.75000000       0.50000000 </v>
   <v>       0.25000000       0.50000000       0.50000000 </v>
   <v>       0.75000000       0.25000000       0.25000000 </v>
   <v>       0.50000000       0.00000000       0.25000000 </v>
   <v>       0.50000000       0.25000000       0.00000000 </v>
   <v>       0.75000000       0.00000000       0.00000000 </v>
   <v>       0.75000000       0.25000000       0.75000000 </v>
   <v>       0.50000000       0.00000000       0.75000000 </v>
   <v>       0.50000000       0.25000000       0.50000000 </v>
   <v>       0.75000000       0.00000000       0.50000000 </v>
   <v>       0.75000000       0.75000000       0.25000000 </v>
   <v>       0.50000000       0.50000000       0.25000000 </v>
   <v>       0.50000000       0.75000000       0.00000000 </v>
   <v>       0.75000000       0.50000000       0.00000000 </v>
   <v>       0.75000000       0.75000000       0.75000000 </v>
   <v>       0.50000000       0.50000000       0.75000000 </v>
   <v>       0.50000000       0.75000000       0.50000000 </v>
   <v>       0.75000000       0.50000000       0.50000000 </v>
  </varray>
 </structure>
 <calculation>
  <scstep>
   <time name="dav">    7.46    7.50</time>
   <time name="total">    7.54    7.57</time>
   <energy>
    <i name="alphaZ">    751.52672365 </i>
    <i name="ewald"> -22871.34947859 </i>
    <i name="hartreedc">  -8992.23558087 </i>
    <i name="XCdc">   1456.53422984 </i>
    <i name="pawpsdc">  26466.43774078 </i>
    <i name="pawaedc"> -29286.08056155 </i>
    <i name="eentropy">     -0.00461361 </i>
    <i name="bandstr">   -739.97321269 </i>
    <i name="atom">  37532.17946992 </i>
    <i name="e_fr_energy">   4317.03471689 </i>
    <i name="e_wo_entrp">   4317.03933049 </i>
    <i name="e_0_energy">   4317.03702369 </i>
   </energy>
  </scstep>
  <scstep>
   <time name="dav">    8.13    8.17</time>
   <time name="total">    8.13    8.17</time>
   <energy>
    <i name="e_fr_energy">    363.41015188 </i>
    <i name="e_wo_entrp">    363.41015188 </i>
    <i name="e_0_energy">    363.41015188 </i>
   </energy>
  </scstep>
  <scstep>
   <time name="dav">    8.71    8.76</time>
   <time name="total">    8.71    8.76</time>
   <energy>
    <i name="e_fr_energy">   -206.22640469 </i>
    <i name="e_wo_entrp">   -206.22640469 </i>
    <i name="e_0_energy">   -206.22640469 </i>
   </energy>
  </scstep>
  <scstep>
   <time name="dav">    8.69    8.74</time>
   <time name="total">    8.69    8.74</time>
   <energy>
    <i name="e_fr_energy">   -228.19429360 </i>
    <i name="e_wo_entrp">   -228.19429360 </i>
    <i name="e_0_energy">   -228.19429360 </i>
   </energy>
  </scstep>
  <scstep>
   <time name="dav">    9.05    9.10</time>
   <time name="total">    9.32    9.37</time>
   <energy>
    <i name="e_fr_energy">   -229.00749366 </i>
    <i name="e_wo_entrp">   -229.00749366 </i>
    <i name="e_0_energy">   -229.00749366 </i>
   </energy>
  </scstep>
  <scstep>
   <time name="dav">    8.84    8.88</time>
   <time name="total">    9.17    9.22</time>
   <energy>
    <i name="e_fr_energy">   -224.13744809 </i>
    <i name="e_wo_entrp">   -224.13744809 </i>
    <i name="e_0_energy">   -224.13744809 </i>
   </energy>
  </scstep>
  <scstep>
   <time name="dav">    9.57    9.62</time>
   <time name="total">    9.91    9.95</time>
   <energy>
    <i name="e_fr_energy">   -223.77744187 </i>
    <i name="e_wo_entrp">   -223.77744187 </i>
    <i name="e_0_energy">   -223.77744187 </i>
   </energy>
  </scstep>
  <scstep>
   <time name="dav">    8.40    8.45</time>
   <time name="total">    8.74    8.79</time>
   <energy>
    <i name="e_fr_energy">   -223.90259853 </i>
    <i name="e_wo_entrp">   -223.90259853 </i>
    <i name="e_0_energy">   -223.90259853 </i>
   </energy>
  </scstep>
  <scstep>
   <time name="dav">    8.95    9.00</time>
   <time name="total">    9.29    9.34</time>
   <energy>
    <i name="e_fr_energy">   -223.89729582 </i>
    <i name="e_wo_entrp">   -223.89729582 </i>
    <i name="e_0_energy">   -223.89729582 </i>
   </energy>
  </scstep>
  <scstep>
   <time name="dav">    8.33    8.37</time>
   <time name="total">    8.66    8.71</time>
   <energy>
    <i name="e_fr_energy">   -223.90163176 </i>
    <i name="e_wo_entrp">   -223.90163176 </i>
    <i name="e_0_energy">   -223.90163176 </i>
   </energy>
  </scstep>
  <scstep>
   <time name="dav">    8.85    8.90</time>
   <time name="total">    9.19    9.24</time>
   <energy>
    <i name="e_fr_energy">   -223.90089704 </i>
    <i name="e_wo_entrp">   -223.90089704 </i>
    <i name="e_0_energy">   -223.90089704 </i>
   </energy>
  </scstep>
  <scstep>
   <time name="dav">    9.29    9.34</time>
   <time name="total">    9.63    9.68</time>
   <energy>
    <i name="e_fr_energy">   -223.90086635 </i>
    <i name="e_wo_entrp">   -223.90086635 </i>
    <i name="e_0_energy">   -223.90086635 </i>
   </energy>
  </scstep>
  <scstep>
   <time name="dav">    8.49    8.54</time>
   <time name="total">    8.83    8.87</time>
   <energy>
    <i name="e_fr_energy">   -223.90087362 </i>
    <i name="e_wo_entrp">   -223.90087362 </i>
    <i name="e_0_energy">   -223.90087362 </i>
   </energy>
  </scstep>
  <scstep>
   <time name="dav">    9.15    9.20</time>
   <time name="total">    9.49    9.54</time>
   <energy>
    <i name="e_fr_energy">   -223.90087354 </i>
    <i name="e_wo_entrp">   -223.90087354 </i>
    <i name="e_0_energy">   -223.90087354 </i>
   </energy>
  </scstep>
  <scstep>
   <time name="dav">    7.27    7.31</time>
   <time name="total">    7.61    7.64</time>
   <energy>
    <i name="e_fr_energy">   -223.90087548 </i>
    <i name="e_wo_entrp">   -223.90087548 </i>
    <i name="e_0_energy">   -223.90087548 </i>
   </energy>
  </scstep>
  <scstep>
   <time name="dav">    7.20    7.24</time>
   <time name="total">    7.54    7.58</time>
   <energy>
    <i name="e_fr_energy">   -223.90087563 </i>
    <i name="e_wo_entrp">   -223.90087563 </i>
    <i name="e_0_energy">   -223.90087563 </i>
   </energy>
  </scstep>
  <scstep>
   <time name="dav">    6.47    6.50</time>
   <time name="total">    6.80    6.84</time>
   <energy>
    <i name="e_fr_energy">   -223.90087559 </i>
    <i name="e_wo_entrp">   -223.90087559 </i>
    <i name="e_0_energy">   -223.90087559 </i>
   </energy>
  </scstep>
  <scstep>
   <time name="dav">    5.63    5.66</time>
   <time name="total">    5.96    5.99</time>
   <energy>
    <i name="e_fr_energy">   -223.90087567 </i>
    <i name="e_wo_entrp">   -223.90087567 </i>
    <i name="e_0_energy">   -223.90087567 </i>
   </energy>
  </scstep>
  <scstep>
   <time name="dav">    5.61    5.64</time>
   <time name="total">    5.95    5.99</time>
   <energy>
    <i name="e_fr_energy">   -223.90087564 </i>
    <i name="e_wo_entrp">   -223.90087564 </i>
    <i name="e_0_energy">   -223.90087564 </i>
   </energy>
  </scstep>
  <scstep>
   <time name="dav">    5.62    5.65</time>
   <time name="total">    5.69    5.72</time>
   <energy>
    <i name="alphaZ">    751.52672365 </i>
    <i name="ewald"> -22871.34947859 </i>
    <i name="hartreedc">  -9078.14630989 </i>
    <i name="XCdc">   1472.51333714 </i>
    <i name="pawpsdc">  29498.27921811 </i>
    <i name="pawaedc"> -32317.64404443 </i>
    <i name="eentropy">     -0.00000000 </i>
    <i name="bandstr">  -5211.25979155 </i>
    <i name="atom">  37532.17946992 </i>
    <i name="e_fr_energy">   -223.90087563 </i>
    <i name="e_wo_entrp">   -223.90087563 </i>
    <i name="e_0_energy">   -223.90087563 </i>
   </energy>
  </scstep>
  <structure>
   <crystal>
    <varray name="basis" >
     <v>      11.20400236       0.00000000       0.00000000 </v>
     <v>       0.00000000      11.20400236       0.00000000 </v>
     <v>       0.00000000       0.00000000      11.20400236 </v>
    </varray>
    <i name="volume">   1406.43470641 </i>
    <varray name="rec_basis" >
     <v>       0.08925382       0.00000000       0.00000000 </v>
     <v>       0.00000000       0.08925382       0.00000000 </v>
     <v>       0.00000000       0.00000000       0.08925382 </v>
    </varray>
   </crystal>
   <varray name="positions" >
    <v>       0.00267761       0.00000000       0.00000000 </v>
    <v>       0.25000000       0.25000000       0.00000000 </v>
    <v>       0.25000000       0.00000000       0.25000000 </v>
    <v>       0.99732239       0.25000000       0.25000000 </v>
    <v>       0.00000000       0.00000000       0.50000000 </v>
    <v>       0.25000000       0.25000000       0.50000000 </v>
    <v>       0.25000000       0.00000000       0.75000000 </v>
    <v>       0.00000000       0.25000000       0.75000000 </v>
    <v>       0.00000000       0.50000000       0.00000000 </v>
    <v>       0.25000000       0.75000000       0.00000000 </v>
    <v>       0.25000000       0.50000000       0.25000000 </v>
    <v>       0.00000000       0.75000000       0.25000000 </v>
    <v>       0.00000000       0.50000000       0.50000000 </v>
    <v>       0.25000000       0.75000000       0.50000000 </v>
    <v>       0.25000000       0.50000000       0.75000000 </v>
    <v>       0.00000000       0.75000000       0.75000000 </v>
    <v>       0.50000000       0.00000000       0.00000000 </v>
    <v>       0.75000000       0.25000000       0.00000000 </v>
    <v>       0.75000000       0.00000000       0.25000000 </v>
    <v>       0.50000000       0.25000000       0.25000000 </v>
    <v>       0.50000000       0.00000000       0.50000000 </v>
    <v>       0.75000000       0.25000000       0.50000000 </v>
    <v>       0.75000000       0.00000000       0.75000000 </v>
    <v>       0.50000000       0.25000000       0.75000000 </v>
    <v>       0.50000000       0.50000000       0.00000000 </v>
    <v>       0.75000000       0.75000000       0.00000000 </v>
    <v>       0.75000000       0.50000000       0.25000000 </v>
    <v>       0.50000000       0.75000000       0.25000000 </v>
    <v>       0.50000000       0.50000000       0.50000000 </v>
    <v>       0.75000000       0.75000000       0.50000000 </v>
    <v>       0.75000000       0.50000000       0.75000000 </v>
    <v>       0.50000000       0.75000000       0.75000000 </v>
    <v>       0.25000000       0.25000000       0.25000000 </v>
    <v>       0.00000000       0.00000000       0.25000000 </v>
    <v>       0.00000000       0.25000000       0.00000000 </v>
    <v>       0.25000000       0.00000000       0.00000000 </v>
    <v>       0.25000000       0.25000000       0.75000000 </v>
    <v>       0.00000000       0.00000000       0.75000000 </v>
    <v>       0.00000000       0.25000000       0.50000000 </v>
    <v>       0.25000000       0.00000000       0.50000000 </v>
    <v>       0.25000000       0.75000000       0.25000000 </v>
    <v>       0.00000000       0.50000000       0.25000000 </v>
    <v>       0.00000000       0.75000000       0.00000000 </v>
    <v>       0.25000000       0.50000000       0.00000000 </v>
    <v>       0.25000000       0.75000000       0.75000000 </v>
    <v>       0.00000000       0.50000000       0.75000000 </v>
    <v>       0.00000000       0.75000000       0.50000000 </v>
    <v>       0.25000000       0.50000000       0.50000000 </v>
    <v>       0.75000000       0.25000000       0.25000000 </v>
    <v>       0.50000000       0.00000000       0.25000000 </v>
    <v>       0.50000000       0.25000000       0.00000000 </v>
    <v>       0.75000000       0.00000000       0.00000000 </v>
    <v>       0.75000000       0.25000000       0.75000000 </v>
    <v>       0.50000000       0.00000000       0.75000000 </v>
    <v>       0.50000000       0.25000000       0.50000000 </v>
    <v>       0.75000000       0.00000000       0.50000000 </v>
    <v>       0.75000000       0.75000000       0.25000000 </v>
    <v>       0.50000000       0.50000000       0.25000000 </v>
    <v>       0.50000000       0.75000000       0.00000000 </v>
    <v>       0.75000000       0.50000000       0.00000000 </v>
    <v>       0.75000000       0.75000000       0.75000000 </v>
    <v>       0.50000000       0.50000000       0.75000000 </v>
    <v>       0.50000000       0.75000000       0.50000000 </v>
    <v>       0.75000000       0.50000000       0.50000000 </v>
   </varray>
  </structure>
  <varray name="forces" >
   <v>      -0.06115474       0.00005077       0.00005077 </v>
   <v>       0.00000498       0.00592775       0.00580123 </v>
   <v>       0.00000498       0.00580123       0.00592775 </v>
   <v>       0.06115474      -0.00005077      -0.00005077 </v>
   <v>       0.00161289       0.00001927      -0.00002074 </v>
   <v>      -0.00154217      -0.00007760      -0.00580137 </v>
   <v>       0.00153383      -0.00007317      -0.00592725 </v>
   <v>      -0.00161289      -0.00001927       0.00002074 </v>
   <v>       0.00161289      -0.00002074       0.00001927 </v>
   <v>       0.00153383      -0.00592725      -0.00007317 </v>
   <v>      -0.00154217      -0.00580137      -0.00007760 </v>
   <v>      -0.00161289       0.00002074      -0.00001927 </v>
   <v>       0.00121084      -0.00001948      -0.00001948 </v>
   <v>      -0.00001290       0.00007763       0.00007318 </v>
   <v>      -0.00001290       0.00007318       0.00007763 </v>
   <v>      -0.00121084       0.00001948       0.00001948 </v>
   <v>       0.00775232      -0.00000071      -0.00000071 </v>
   <v>      -0.00000498      -0.00580123      -0.00592775 </v>
   <v>      -0.00000498      -0.00592775      -0.00580123 </v>
   <v>      -0.00775232       0.00000071       0.00000071 </v>
   <v>      -0.00085448      -0.00000481       0.00000411 </v>
   <v>      -0.00153383       0.00007317       0.00592725 </v>
   <v>       0.00154217       0.00007760       0.00580137 </v>
   <v>       0.00085448       0.00000481      -0.00000411 </v>
   <v>      -0.00085448       0.00000411      -0.00000481 </v>
   <v>       0.00154217       0.00580137       0.00007760 </v>
   <v>      -0.00153383       0.00592725       0.00007317 </v>
   <v>       0.00085448      -0.00000411       0.00000481 </v>
   <v>      -0.00072234       0.00000478       0.00000478 </v>
   <v>       0.00001290      -0.00007318      -0.00007763 </v>
   <v>       0.00001290      -0.00007763      -0.00007318 </v>
   <v>       0.00072234      -0.00000478      -0.00000478 </v>
   <v>      -0.01640057      -0.00130980      -0.00130980 </v>
   <v>      -0.00000000       0.00010588      -0.00010588 </v>
   <v>      -0.00000000      -0.00010588       0.00010588 </v>
   <v>       0.02046725      -0.00127927      -0.00127927 </v>
   <v>      -0.00035894      -0.00130401       0.00130536 </v>
   <v>       0.00440140      -0.00001092       0.00012194 </v>
   <v>      -0.00440140       0.00001092      -0.00012194 </v>
   <v>       0.00041131      -0.00128351       0.00128275 </v>
   <v>      -0.00035894       0.00130536      -0.00130401 </v>
   <v>      -0.00440140      -0.00012194       0.00001092 </v>
   <v>       0.00440140       0.00012194      -0.00001092 </v>
   <v>       0.00041131       0.00128275      -0.00128351 </v>
   <v>      -0.00020843       0.00130641       0.00130641 </v>
   <v>      -0.00000000       0.00000955      -0.00000955 </v>
   <v>      -0.00000000      -0.00000955       0.00000955 </v>
   <v>       0.00023930       0.00128260       0.00128260 </v>
   <v>      -0.02046725       0.00127927       0.00127927 </v>
   <v>      -0.00000000       0.00000883      -0.00000883 </v>
   <v>      -0.00000000      -0.00000883       0.00000883 </v>
   <v>       0.01640057       0.00130980       0.00130980 </v>
   <v>      -0.00041131       0.00128351      -0.00128275 </v>
   <v>      -0.00216160       0.00000158       0.00001192 </v>
   <v>       0.00216160      -0.00000158      -0.00001192 </v>
   <v>       0.00035894       0.00130401      -0.00130536 </v>
   <v>      -0.00041131      -0.00128275       0.00128351 </v>
   <v>       0.00216160      -0.00001192      -0.00000158 </v>
   <v>      -0.00216160       0.00001192       0.00000158 </v>
   <v>       0.00035894      -0.00130536       0.00130401 </v>
   <v>      -0.00023930      -0.00128260      -0.00128260 </v>
   <v>      -0.00000000      -0.00000196       0.00000196 </v>
   <v>      -0.00000000       0.00000196      -0.00000196 </v>
   <v>       0.00020843      -0.00130641      -0.00130641 </v>
  </varray>
  <varray name="stress" >
   <v>      -0.35633503      -0.00004868      -0.00004868 </v>
   <v>      -0.00004873      -0.37921595      -0.00030324 </v>
   <v>      -0.00004873      -0.00030324      -0.37921595 </v>
  </varray>
  <energy>
   <i name="e_fr_energy">   -223.90087563 </i>
   <i name="e_wo_entrp">   -223.90087563 </i>
   <i name="e_0_energy">   -223.90087563 </i>
  </energy>
  <time name="totalsc">  176.78  177.72</time>
  <eigenvalues>
   <array>
    <dimension dim="1">band</dimension>
    <dimension dim="2">kpoint</dimension>
    <dimension dim="3">spin</dimension>
    <field>eigene</field>
    <field>occ</field>
    <set>
     <set comment="spin 1">
      <set comment="kpoint 1">
       <r>  -21.3039    1.0000 </r>
       <r>  -21.3039    1.0000 </r>
       <r>  -21.3037    1.0000 </r>
       <r>  -21.3037    1.0000 </r>
       <r>  -21.2954    1.0000 </r>
       <r>  -21.2951    1.0000 </r>
       <r>  -21.2947    1.0000 </r>
       <r>  -21.2942    1.0000 </r>
       <r>  -21.2936    1.0000 </r>
       <r>  -21.2932    1.0000 </r>
       <r>  -21.2929    1.0000 </r>
       <r>  -21.2929    1.0000 </r>
       <r>  -21.2929    1.0000 </r>
       <r>  -21.2929    1.0000 </r>
       <r>  -21.2928    1.0000 </r>
       <r>  -21.2919    1.0000 </r>
       <r>  -21.2916    1.0000 </r>
       <r>  -21.2914    1.0000 </r>
       <r>  -21.2912    1.0000 </r>
       <r>  -21.2881    1.0000 </r>
       <r>  -21.2879    1.0000 </r>
       <r>  -21.2873    1.0000 </r>
       <r>  -21.2866    1.0000 </r>
       <r>  -21.2861    1.0000 </r>
       <r>  -21.2858    1.0000 </r>
       <r>  -21.2856    1.0000 </r>
       <r>  -21.2856    1.0000 </r>
       <r>  -21.2855    1.0000 </r>
       <r>  -21.2855    1.0000 </r>
       <r>  -21.2848    1.0000 </r>
       <r>  -21.2848    1.0000 </r>
       <r>  -21.2841    1.0000 </r>
       <r>  -21.2839    1.0000 </r>
       <r>  -21.2837    1.0000 </r>
       <r>  -21.2830    1.0000 </r>
       <r>  -21.2829    1.0000 </r>
       <r>  -21.2826    1.0000 </r>
       <r>  -21.2816    1.0000 </r>
       <r>  -21.2816    1.0000 </r>
       <r>  -21.2815    1.0000 </r>
       <r>  -21.2812    1.0000 </r>
       <r>  -21.2811    1.0000 </r>
       <r>  -21.2811    1.0000 </r>
       <r>  -21.2810    1.0000 </r>
       <r>  -21.2809    1.0000 </r>
       <r>  -21.2807    1.0000 </r>
       <r>  -21.2807    1.0000 </r>
       <r>  -21.2801    1.0000 </r>
       <r>  -21.2801    1.0000 </r>
       <r>  -21.2799    1.0000 </r>
       <r>  -21.2799    1.0000 </r>
       <r>  -21.2798    1.0000 </r>
       <r>  -21.2798    1.0000 </r>
       <r>  -21.2798    1.0000 </r>
       <r>  -21.2798    1.0000 </r>
       <r>  -21.2790    1.0000 </r>
       <r>  -21.2787    1.0000 </r>
       <r>  -21.2778    1.0000 </r>
       <r>  -21.2778    1.0000 </r>
       <r>  -21.2776    1.0000 </r>
       <r>  -21.2775    1.0000 </r>
       <r>  -21.2755    1.0000 </r>
       <r>  -21.2754    1.0000 </r>
       <r>  -21.2747    1.0000 </r>
       <r>  -21.2746    1.0000 </r>
       <r>  -21.2745    1.0000 </r>
       <r>  -21.2742    1.0000 </r>
       <r>  -21.2742    1.0000 </r>
       <r>  -21.2741    1.0000 </r>
       <r>  -21.2741    1.0000 </r>
       <r>  -21.2741    1.0000 </r>
       <r>  -21.2732    1.0000 </r>
       <r>  -21.2732    1.0000 </r>
       <r>  -21.2730    1.0000 </r>
       <r>  -21.2727    1.0000 </r>
       <r>  -21.2720    1.0000 </r>
       <r>  -21.2720    1.0000 </r>
       <r>  -21.2718    1.0000 </r>
       <r>  -21.2718    1.0000 </r>
       <r>  -21.2718    1.0000 </r>
       <r>  -21.2718    1.0000 </r>
       <r>  -21.2717    1.0000 </r>
       <r>  -21.2717    1.0000 </r>
       <r>  -21.2715    1.0000 </r>
       <r>  -21.2713    1.0000 </r>
       <r>  -21.2710    1.0000 </r>
       <r>  -21.2707    1.0000 </r>
       <r>  -21.2706    1.0000 </r>
       <r>  -21.2706    1.0000 </r>
       <r>  -21.2705    1.0000 </r>
       <r>  -21.2703    1.0000 </r>
       <r>  -21.2702    1.0000 </r>
       <r>  -21.2696    1.0000 </r>
       <r>  -21.2686    1.0000 </r>
       <r>  -21.2684    1.0000 </r>
       <r>  -21.2683    1.0000 </r>
       <r>  -13.3581    1.0000 </r>
       <r>  -13.1444    1.0000 </r>
       <r>  -13.1382    1.0000 </r>
       <r>  -13.1373    1.0000 </r>
       <r>  -13.1373    1.0000 </r>
       <r>  -13.1372    1.0000 </r>
       <r>  -13.1317    1.0000 </r>
       <r>  -13.0209    1.0000 </r>
       <r>  -13.0209    1.0000 </r>
       <r>  -13.0112    1.0000 </r>
       <r>  -13.0112    1.0000 </r>
       <r>  -13.0111    1.0000 </r>
       <r>  -13.0111    1.0000 </r>
       <r>  -13.0111    1.0000 </r>
       <r>  -13.0111    1.0000 </r>
       <r>  -13.0111    1.0000 </r>
       <r>  -13.0111    1.0000 </r>
       <r>  -13.0035    1.0000 </r>
       <r>  -13.0035    1.0000 </r>
       <r>  -12.9902    1.0000 </r>
       <r>  -12.9900    1.0000 </r>
       <r>  -12.9900    1.0000 </r>
       <r>  -12.9898    1.0000 </r>
       <r>  -12.9408    1.0000 </r>
       <r>  -12.9404    1.0000 </r>
       <r>  -12.9390    1.0000 </r>
       <r>  -12.9267    1.0000 </r>
       <r>  -12.9215    1.0000 </r>
       <r>  -12.9215    1.0000 </r>
       <r>  -12.9214    1.0000 </r>
       <r>  -12.9201    1.0000 </r>
       <r>  -12.9140    1.0000 </r>
       <r>   -2.7001    1.0000 </r>
       <r>   -2.7000    1.0000 </r>
       <r>   -2.7000    1.0000 </r>
       <r>   -2.7000    1.0000 </r>
       <r>   -2.4241    1.0000 </r>
       <r>   -2.4240    1.0000 </r>
       <r>   -2.4240    1.0000 </r>
       <r>   -2.2087    1.0000 </r>
       <r>   -2.2087    1.0000 </r>
       <r>   -2.2052    1.0000 </r>
       <r>   -2.2047    1.0000 </r>
       <r>   -2.2045    1.0000 </r>
       <r>   -2.2044    1.0000 </r>
       <r>   -2.2042    1.0000 </r>
       <r>   -2.2042    1.0000 </r>
       <r>   -2.2038    1.0000 </r>
       <r>   -2.2033    1.0000 </r>
       <r>   -2.2001    1.0000 </r>
       <r>   -2.1999    1.0000 </r>
       <r>   -1.9290    1.0000 </r>
       <r>   -1.9289    1.0000 </r>
       <r>   -1.9257    1.0000 </r>
       <r>   -1.9255    1.0000 </r>
       <r>   -1.9247    1.0000 </r>
       <r>   -1.9247    1.0000 </r>
       <r>   -1.9247    1.0000 </r>
       <r>   -1.9246    1.0000 </r>
       <r>   -1.9239    1.0000 </r>
       <r>   -1.9237    1.0000 </r>
       <r>   -1.9206    1.0000 </r>
       <r>   -1.9205    1.0000 </r>
       <r>   -1.7981    1.0000 </r>
       <r>   -1.7967    1.0000 </r>
       <r>   -1.7967    1.0000 </r>
       <r>   -1.7966    1.0000 </r>
       <r>   -1.7966    1.0000 </r>
       <r>   -1.7951    1.0000 </r>
       <r>   -1.5067    1.0000 </r>
       <r>   -1.5065    1.0000 </r>
       <r>   -1.5064    1.0000 </r>
       <r>   -1.5058    1.0000 </r>
       <r>   -1.5057    1.0000 </r>
       <r>   -1.5057    1.0000 </r>
       <r>   -1.5057    1.0000 </r>
       <r>   -1.5054    1.0000 </r>
       <r>   -1.5052    1.0000 </r>
       <r>   -1.5050    1.0000 </r>
       <r>   -1.5040    1.0000 </r>
       <r>   -1.5040    1.0000 </r>
       <r>   -1.4638    1.0000 </r>
       <r>   -1.4626    1.0000 </r>
       <r>   -1.4625    1.0000 </r>
       <r>   -1.4625    1.0000 </r>
       <r>   -1.4617    1.0000 </r>
       <r>   -1.4616    1.0000 </r>
       <r>   -1.2949    1.0000 </r>
       <r>   -1.2948    1.0000 </r>
       <r>   -1.2947    1.0000 </r>
       <r>   -1.2947    1.0000 </r>
       <r>   -1.2947    1.0000 </r>
       <r>   -1.2946    1.0000 </r>
       <r>   -1.0053    1.0000 </r>
       <r>   -1.0050    1.0000 </r>
       <r>   -1.0026    1.0000 </r>
       <r>   -1.0024    1.0000 </r>
       <r>   -1.0014    1.0000 </r>
       <r>   -1.0011    1.0000 </r>
       <r>   -1.0010    1.0000 </r>
       <r>   -1.0007    1.0000 </r>
       <r>   -1.0005    1.0000 </r>
       <r>   -1.0001    1.0000 </r>
       <r>   -0.9971    1.0000 </r>
       <r>   -0.9969    1.0000 </r>
       <r>   -0.9522    1.0000 </r>
       <r>   -0.9519    1.0000 </r>
       <r>   -0.9485    1.0000 </r>
       <r>   -0.9479    1.0000 </r>
       <r>   -0.9478    1.0000 </r>
       <r>   -0.9478    1.0000 </r>
       <r>   -0.9478    1.0000 </r>
       <r>   -0.9472    1.0000 </r>
       <r>   -0.9471    1.0000 </r>
       <r>   -0.9471    1.0000 </r>
       <r>   -0.9463    1.0000 </r>
       <r>   -0.9463    1.0000 </r>
       <r>   -0.9456    1.0000 </r>
       <r>   -0.9456    1.0000 </r>
       <r>   -0.9455    1.0000 </r>
       <r>   -0.9455    1.0000 </r>
       <r>   -0.9447    1.0000 </r>
       <r>   -0.9443    1.0000 </r>
       <r>   -0.9427    1.0000 </r>
       <r>   -0.9423    1.0000 </r>
       <r>   -0.6649    1.0000 </r>
       <r>   -0.6649    1.0000 </r>
       <r>   -0.6648    1.0000 </r>
       <r>    4.3403    0.0000 </r>
       <r>    6.3646    0.0000 </r>
       <r>    6.3682    0.0000 </r>
       <r>    6.3682    0.0000 </r>
       <r>    6.3682    0.0000 </r>
       <r>    6.3682    0.0000 </r>
       <r>    6.3717    0.0000 </r>
       <r>    6.4446    0.0000 </r>
       <r>    6.4446    0.0000 </r>
       <r>    6.4447    0.0000 </r>
       <r>    6.4447    0.0000 </r>
       <r>    6.8279    0.0000 </r>
       <r>    6.8280    0.0000 </r>
       <r>    6.8280    0.0000 </r>
       <r>    7.2068    0.0000 </r>
       <r>    7.2069    0.0000 </r>
       <r>    7.2069    0.0000 </r>
       <r>    7.4604    0.0000 </r>
       <r>    7.4612    0.0000 </r>
       <r>    7.4617    0.0000 </r>
       <r>    7.4632    0.0000 </r>
       <r>    7.4641    0.0000 </r>
       <r>    7.4642    0.0000 </r>
       <r>    7.4642    0.0000 </r>
       <r>    7.4642    0.0000 </r>
       <r>    7.4651    0.0000 </r>
       <r>    7.4667    0.0000 </r>
       <r>    7.4671    0.0000 </r>
       <r>    7.4680    0.0000 </r>
       <r>    8.1659    0.0000 </r>
       <r>    8.1683    0.0000 </r>
       <r>    8.1684    0.0000 </r>
       <r>    8.1684    0.0000 </r>
       <r>    8.1684    0.0000 </r>
       <r>    8.1709    0.0000 </r>
       <r>    8.2764    0.0000 </r>
       <r>    8.2795    0.0000 </r>
       <r>    8.2795    0.0000 </r>
       <r>    8.2796    0.0000 </r>
       <r>    8.2796    0.0000 </r>
       <r>    8.2828    0.0000 </r>
       <r>    8.8946    0.0000 </r>
       <r>    8.8954    0.0000 </r>
       <r>    8.8982    0.0000 </r>
       <r>    8.8992    0.0000 </r>
       <r>    8.9005    0.0000 </r>
       <r>    8.9007    0.0000 </r>
       <r>    8.9009    0.0000 </r>
       <r>    8.9014    0.0000 </r>
       <r>    8.9024    0.0000 </r>
       <r>    8.9034    0.0000 </r>
       <r>    8.9043    0.0000 </r>
       <r>    8.9057    0.0000 </r>
       <r>    8.9131    0.0000 </r>
       <r>    8.9137    0.0000 </r>
       <r>    8.9139    0.0000 </r>
       <r>    8.9161    0.0000 </r>
       <r>    8.9169    0.0000 </r>
       <r>    8.9170    0.0000 </r>
       <r>    8.9175    0.0000 </r>
       <r>    8.9195    0.0000 </r>
       <r>    8.9208    0.0000 </r>
       <r>    8.9216    0.0000 </r>
       <r>    8.9230    0.0000 </r>
      </set>
      <set comment="kpoint 2">
       <r>  -21.2999    1.0000 </r>
       <r>  -21.2999    1.0000 </r>
       <r>  -21.2995    1.0000 </r>
       <r>  -21.2995    1.0000 </r>
       <r>  -21.2994    1.0000 </r>
       <r>  -21.2994    1.0000 </r>
       <r>  -21.2993    1.0000 </r>
       <r>  -21.2993    1.0000 </r>
       <r>  -21.2925    1.0000 </r>
       <r>  -21.2923    1.0000 </r>
       <r>  -21.2920    1.0000 </r>
       <r>  -21.2920    1.0000 </r>
       <r>  -21.2916    1.0000 </r>
       <r>  -21.2915    1.0000 </r>
       <r>  -21.2915    1.0000 </r>
       <r>  -21.2914    1.0000 </r>
       <r>  -21.2911    1.0000 </r>
       <r>  -21.2911    1.0000 </r>
       <r>  -21.2906    1.0000 </r>
       <r>  -21.2905    1.0000 </r>
       <r>  -21.2898    1.0000 </r>
       <r>  -21.2896    1.0000 </r>
       <r>  -21.2887    1.0000 </r>
       <r>  -21.2887    1.0000 </r>
       <r>  -21.2883    1.0000 </r>
       <r>  -21.2883    1.0000 </r>
       <r>  -21.2882    1.0000 </r>
       <r>  -21.2881    1.0000 </r>
       <r>  -21.2878    1.0000 </r>
       <r>  -21.2877    1.0000 </r>
       <r>  -21.2846    1.0000 </r>
       <r>  -21.2846    1.0000 </r>
       <r>  -21.2844    1.0000 </r>
       <r>  -21.2843    1.0000 </r>
       <r>  -21.2843    1.0000 </r>
       <r>  -21.2843    1.0000 </r>
       <r>  -21.2841    1.0000 </r>
       <r>  -21.2841    1.0000 </r>
       <r>  -21.2807    1.0000 </r>
       <r>  -21.2807    1.0000 </r>
       <r>  -21.2806    1.0000 </r>
       <r>  -21.2806    1.0000 </r>
       <r>  -21.2804    1.0000 </r>
       <r>  -21.2804    1.0000 </r>
       <r>  -21.2801    1.0000 </r>
       <r>  -21.2800    1.0000 </r>
       <r>  -21.2781    1.0000 </r>
       <r>  -21.2781    1.0000 </r>
       <r>  -21.2781    1.0000 </r>
       <r>  -21.2780    1.0000 </r>
       <r>  -21.2769    1.0000 </r>
       <r>  -21.2768    1.0000 </r>
       <r>  -21.2763    1.0000 </r>
       <r>  -21.2763    1.0000 </r>
       <r>  -21.2761    1.0000 </r>
       <r>  -21.2761    1.0000 </r>
       <r>  -21.2760    1.0000 </r>
       <r>  -21.2759    1.0000 </r>
       <r>  -21.2758    1.0000 </r>
       <r>  -21.2758    1.0000 </r>
       <r>  -21.2758    1.0000 </r>
       <r>  -21.2758    1.0000 </r>
       <r>  -21.2758    1.0000 </r>
       <r>  -21.2758    1.0000 </r>
       <r>  -21.2757    1.0000 </r>
       <r>  -21.2757    1.0000 </r>
       <r>  -21.2749    1.0000 </r>
       <r>  -21.2749    1.0000 </r>
       <r>  -21.2748    1.0000 </r>
       <r>  -21.2748    1.0000 </r>
       <r>  -21.2744    1.0000 </r>
       <r>  -21.2744    1.0000 </r>
       <r>  -21.2742    1.0000 </r>
       <r>  -21.2742    1.0000 </r>
       <r>  -21.2736    1.0000 </r>
       <r>  -21.2735    1.0000 </r>
       <r>  -21.2725    1.0000 </r>
       <r>  -21.2724    1.0000 </r>
       <r>  -21.2722    1.0000 </r>
       <r>  -21.2722    1.0000 </r>
       <r>  -21.2718    1.0000 </r>
       <r>  -21.2718    1.0000 </r>
       <r>  -21.2717    1.0000 </r>
       <r>  -21.2717    1.0000 </r>
       <r>  -21.2714    1.0000 </r>
       <r>  -21.2714    1.0000 </r>
       <r>  -21.2710    1.0000 </r>
       <r>  -21.2710    1.0000 </r>
       <r>  -21.2706    1.0000 </r>
       <r>  -21.2706    1.0000 </r>
       <r>  -21.2702    1.0000 </r>
       <r>  -21.2702    1.0000 </r>
       <r>  -21.2700    1.0000 </r>
       <r>  -21.2700    1.0000 </r>
       <r>  -21.2693    1.0000 </r>
       <r>  -21.2693    1.0000 </r>
       <r>  -13.2914    1.0000 </r>
       <r>  -13.2914    1.0000 </r>
       <r>  -13.1031    1.0000 </r>
       <r>  -13.1031    1.0000 </r>
       <r>  -13.0978    1.0000 </r>
       <r>  -13.0978    1.0000 </r>
       <r>  -13.0959    1.0000 </r>
       <r>  -13.0959    1.0000 </r>
       <r>  -13.0922    1.0000 </r>
       <r>  -13.0922    1.0000 </r>
       <r>  -13.0067    1.0000 </r>
       <r>  -13.0066    1.0000 </r>
       <r>  -13.0006    1.0000 </r>
       <r>  -13.0006    1.0000 </r>
       <r>  -13.0005    1.0000 </r>
       <r>  -13.0005    1.0000 </r>
       <r>  -12.9986    1.0000 </r>
       <r>  -12.9986    1.0000 </r>
       <r>  -12.9929    1.0000 </r>
       <r>  -12.9929    1.0000 </r>
       <r>  -12.9490    1.0000 </r>
       <r>  -12.9490    1.0000 </r>
       <r>  -12.9447    1.0000 </r>
       <r>  -12.9447    1.0000 </r>
       <r>  -12.9428    1.0000 </r>
       <r>  -12.9428    1.0000 </r>
       <r>  -12.9397    1.0000 </r>
       <r>  -12.9397    1.0000 </r>
       <r>  -12.9312    1.0000 </r>
       <r>  -12.9310    1.0000 </r>
       <r>  -12.9271    1.0000 </r>
       <r>  -12.9271    1.0000 </r>
       <r>   -2.5057    1.0000 </r>
       <r>   -2.5057    1.0000 </r>
       <r>   -2.5045    1.0000 </r>
       <r>   -2.5045    1.0000 </r>
       <r>   -2.5044    1.0000 </r>
       <r>   -2.5044    1.0000 </r>
       <r>   -2.5030    1.0000 </r>
       <r>   -2.5030    1.0000 </r>
       <r>   -2.2878    1.0000 </r>
       <r>   -2.2877    1.0000 </r>
       <r>   -2.2877    1.0000 </r>
       <r>   -2.2876    1.0000 </r>
       <r>   -2.2743    1.0000 </r>
       <r>   -2.2743    1.0000 </r>
       <r>   -2.1417    1.0000 </r>
       <r>   -2.1417    1.0000 </r>
       <r>   -2.1368    1.0000 </r>
       <r>   -2.1368    1.0000 </r>
       <r>   -2.1360    1.0000 </r>
       <r>   -2.1360    1.0000 </r>
       <r>   -2.1311    1.0000 </r>
       <r>   -2.1311    1.0000 </r>
       <r>   -1.9878    1.0000 </r>
       <r>   -1.9877    1.0000 </r>
       <r>   -1.9872    1.0000 </r>
       <r>   -1.9872    1.0000 </r>
       <r>   -1.9837    1.0000 </r>
       <r>   -1.9837    1.0000 </r>
       <r>   -1.9832    1.0000 </r>
       <r>   -1.9832    1.0000 </r>
       <r>   -1.8109    1.0000 </r>
       <r>   -1.8109    1.0000 </r>
       <r>   -1.8104    1.0000 </r>
       <r>   -1.8104    1.0000 </r>
       <r>   -1.8071    1.0000 </r>
       <r>   -1.8071    1.0000 </r>
       <r>   -1.8066    1.0000 </r>
       <r>   -1.8066    1.0000 </r>
       <r>   -1.4978    1.0000 </r>
       <r>   -1.4978    1.0000 </r>
       <r>   -1.4977    1.0000 </r>
       <r>   -1.4977    1.0000 </r>
       <r>   -1.3808    1.0000 </r>
       <r>   -1.3808    1.0000 </r>
       <r>   -1.3804    1.0000 </r>
       <r>   -1.3803    1.0000 </r>
       <r>   -1.2128    1.0000 </r>
       <r>   -1.2127    1.0000 </r>
       <r>   -1.2126    1.0000 </r>
       <r>   -1.2125    1.0000 </r>
       <r>   -1.1948    1.0000 </r>
       <r>   -1.1947    1.0000 </r>
       <r>   -1.1926    1.0000 </r>
       <r>   -1.1926    1.0000 </r>
       <r>   -1.1895    1.0000 </r>
       <r>   -1.1895    1.0000 </r>
       <r>   -1.1888    1.0000 </r>
       <r>   -1.1888    1.0000 </r>
       <r>   -1.1781    1.0000 </r>
       <r>   -1.1780    1.0000 </r>
       <r>   -1.1746    1.0000 </r>
       <r>   -1.1746    1.0000 </r>
       <r>   -1.1745    1.0000 </r>
       <r>   -1.1745    1.0000 </r>
       <r>   -1.1694    1.0000 </r>
       <r>   -1.1694    1.0000 </r>
       <r>   -1.1613    1.0000 </r>
       <r>   -1.1613    1.0000 </r>
       <r>   -1.1611    1.0000 </r>
       <r>   -1.1610    1.0000 </r>
       <r>   -1.1575    1.0000 </r>
       <r>   -1.1574    1.0000 </r>
       <r>   -1.1572    1.0000 </r>
       <r>   -1.1571    1.0000 </r>
       <r>   -1.0831    1.0000 </r>
       <r>   -1.0830    1.0000 </r>
       <r>   -0.9471    1.0000 </r>
       <r>   -0.9471    1.0000 </r>
       <r>   -0.9471    1.0000 </r>
       <r>   -0.9470    1.0000 </r>
       <r>   -0.9469    1.0000 </r>
       <r>   -0.9469    1.0000 </r>
       <r>   -0.9468    1.0000 </r>
       <r>   -0.9467    1.0000 </r>
       <r>   -0.9381    1.0000 </r>
       <r>   -0.9380    1.0000 </r>
       <r>   -0.9329    1.0000 </r>
       <r>   -0.9329    1.0000 </r>
       <r>   -0.9317    1.0000 </r>
       <r>   -0.9317    1.0000 </r>
       <r>   -0.9260    1.0000 </r>
       <r>   -0.9260    1.0000 </r>
       <r>   -0.7684    1.0000 </r>
       <r>   -0.7683    1.0000 </r>
       <r>   -0.7683    1.0000 </r>
       <r>   -0.7682    1.0000 </r>
       <r>    5.0224    0.0000 </r>
       <r>    5.0224    0.0000 </r>
       <r>    6.7172    0.0000 </r>
       <r>    6.7172    0.0000 </r>
       <r>    6.7174    0.0000 </r>
       <r>    6.7174    0.0000 </r>
       <r>    6.7192    0.0000 </r>
       <r>    6.7192    0.0000 </r>
       <r>    6.7195    0.0000 </r>
       <r>    6.7195    0.0000 </r>
       <r>    6.8431    0.0000 </r>
       <r>    6.8432    0.0000 </r>
       <r>    6.8432    0.0000 </r>
       <r>    6.8432    0.0000 </r>
       <r>    6.8432    0.0000 </r>
       <r>    6.8432    0.0000 </r>
       <r>    6.8433    0.0000 </r>
       <r>    6.8433    0.0000 </r>
       <r>    6.9711    0.0000 </r>
       <r>    6.9711    0.0000 </r>
       <r>    7.3625    0.0000 </r>
       <r>    7.3625    0.0000 </r>
       <r>    7.3626    0.0000 </r>
       <r>    7.3626    0.0000 </r>
       <r>    7.4802    0.0000 </r>
       <r>    7.4803    0.0000 </r>
       <r>    7.7145    0.0000 </r>
       <r>    7.7145    0.0000 </r>
       <r>    7.7146    0.0000 </r>
       <r>    7.7147    0.0000 </r>
       <r>    8.2636    0.0000 </r>
       <r>    8.2636    0.0000 </r>
       <r>    8.2654    0.0000 </r>
       <r>    8.2655    0.0000 </r>
       <r>    8.2663    0.0000 </r>
       <r>    8.2663    0.0000 </r>
       <r>    8.2682    0.0000 </r>
       <r>    8.2683    0.0000 </r>
       <r>    8.5356    0.0000 </r>
       <r>    8.5357    0.0000 </r>
       <r>    8.5367    0.0000 </r>
       <r>    8.5367    0.0000 </r>
       <r>    8.5376    0.0000 </r>
       <r>    8.5376    0.0000 </r>
       <r>    8.5381    0.0000 </r>
       <r>    8.5381    0.0000 </r>
       <r>    8.5385    0.0000 </r>
       <r>    8.5385    0.0000 </r>
       <r>    8.5394    0.0000 </r>
       <r>    8.5394    0.0000 </r>
       <r>    8.5403    0.0000 </r>
       <r>    8.5403    0.0000 </r>
       <r>    8.5418    0.0000 </r>
       <r>    8.5418    0.0000 </r>
       <r>    8.9483    0.0000 </r>
       <r>    8.9484    0.0000 </r>
       <r>    8.9492    0.0000 </r>
       <r>    8.9493    0.0000 </r>
       <r>    8.9526    0.0000 </r>
       <r>    8.9526    0.0000 </r>
       <r>    8.9534    0.0000 </r>
       <r>    8.9534    0.0000 </r>
       <r>    9.4888    0.0000 </r>
       <r>    9.4944    0.0000 </r>
      </set>
      <set comment="kpoint 3">
       <r>  -21.2997    1.0000 </r>
       <r>  -21.2997    1.0000 </r>
       <r>  -21.2996    1.0000 </r>
       <r>  -21.2996    1.0000 </r>
       <r>  -21.2994    1.0000 </r>
       <r>  -21.2994    1.0000 </r>
       <r>  -21.2993    1.0000 </r>
       <r>  -21.2993    1.0000 </r>
       <r>  -21.2928    1.0000 </r>
       <r>  -21.2928    1.0000 </r>
       <r>  -21.2919    1.0000 </r>
       <r>  -21.2919    1.0000 </r>
       <r>  -21.2917    1.0000 </r>
       <r>  -21.2916    1.0000 </r>
       <r>  -21.2910    1.0000 </r>
       <r>  -21.2909    1.0000 </r>
       <r>  -21.2908    1.0000 </r>
       <r>  -21.2908    1.0000 </r>
       <r>  -21.2906    1.0000 </r>
       <r>  -21.2906    1.0000 </r>
       <r>  -21.2900    1.0000 </r>
       <r>  -21.2900    1.0000 </r>
       <r>  -21.2888    1.0000 </r>
       <r>  -21.2888    1.0000 </r>
       <r>  -21.2886    1.0000 </r>
       <r>  -21.2885    1.0000 </r>
       <r>  -21.2883    1.0000 </r>
       <r>  -21.2882    1.0000 </r>
       <r>  -21.2879    1.0000 </r>
       <r>  -21.2877    1.0000 </r>
       <r>  -21.2844    1.0000 </r>
       <r>  -21.2842    1.0000 </r>
       <r>  -21.2841    1.0000 </r>
       <r>  -21.2841    1.0000 </r>
       <r>  -21.2840    1.0000 </r>
       <r>  -21.2840    1.0000 </r>
       <r>  -21.2838    1.0000 </r>
       <r>  -21.2838    1.0000 </r>
       <r>  -21.2810    1.0000 </r>
       <r>  -21.2809    1.0000 </r>
       <r>  -21.2809    1.0000 </r>
       <r>  -21.2807    1.0000 </r>
       <r>  -21.2805    1.0000 </r>
       <r>  -21.2805    1.0000 </r>
       <r>  -21.2804    1.0000 </r>
       <r>  -21.2804    1.0000 </r>
       <r>  -21.2782    1.0000 </r>
       <r>  -21.2781    1.0000 </r>
       <r>  -21.2779    1.0000 </r>
       <r>  -21.2779    1.0000 </r>
       <r>  -21.2769    1.0000 </r>
       <r>  -21.2768    1.0000 </r>
       <r>  -21.2767    1.0000 </r>
       <r>  -21.2767    1.0000 </r>
       <r>  -21.2765    1.0000 </r>
       <r>  -21.2763    1.0000 </r>
       <r>  -21.2762    1.0000 </r>
       <r>  -21.2761    1.0000 </r>
       <r>  -21.2758    1.0000 </r>
       <r>  -21.2757    1.0000 </r>
       <r>  -21.2757    1.0000 </r>
       <r>  -21.2756    1.0000 </r>
       <r>  -21.2754    1.0000 </r>
       <r>  -21.2754    1.0000 </r>
       <r>  -21.2752    1.0000 </r>
       <r>  -21.2751    1.0000 </r>
       <r>  -21.2747    1.0000 </r>
       <r>  -21.2747    1.0000 </r>
       <r>  -21.2746    1.0000 </r>
       <r>  -21.2745    1.0000 </r>
       <r>  -21.2744    1.0000 </r>
       <r>  -21.2743    1.0000 </r>
       <r>  -21.2743    1.0000 </r>
       <r>  -21.2743    1.0000 </r>
       <r>  -21.2734    1.0000 </r>
       <r>  -21.2734    1.0000 </r>
       <r>  -21.2728    1.0000 </r>
       <r>  -21.2728    1.0000 </r>
       <r>  -21.2723    1.0000 </r>
       <r>  -21.2722    1.0000 </r>
       <r>  -21.2722    1.0000 </r>
       <r>  -21.2722    1.0000 </r>
       <r>  -21.2720    1.0000 </r>
       <r>  -21.2719    1.0000 </r>
       <r>  -21.2717    1.0000 </r>
       <r>  -21.2717    1.0000 </r>
       <r>  -21.2709    1.0000 </r>
       <r>  -21.2709    1.0000 </r>
       <r>  -21.2707    1.0000 </r>
       <r>  -21.2705    1.0000 </r>
       <r>  -21.2702    1.0000 </r>
       <r>  -21.2701    1.0000 </r>
       <r>  -21.2696    1.0000 </r>
       <r>  -21.2696    1.0000 </r>
       <r>  -21.2694    1.0000 </r>
       <r>  -21.2693    1.0000 </r>
       <r>  -13.2916    1.0000 </r>
       <r>  -13.2912    1.0000 </r>
       <r>  -13.1061    1.0000 </r>
       <r>  -13.1009    1.0000 </r>
       <r>  -13.0968    1.0000 </r>
       <r>  -13.0968    1.0000 </r>
       <r>  -13.0968    1.0000 </r>
       <r>  -13.0968    1.0000 </r>
       <r>  -13.0940    1.0000 </r>
       <r>  -13.0895    1.0000 </r>
       <r>  -13.0074    1.0000 </r>
       <r>  -13.0035    1.0000 </r>
       <r>  -13.0006    1.0000 </r>
       <r>  -13.0006    1.0000 </r>
       <r>  -13.0006    1.0000 </r>
       <r>  -13.0006    1.0000 </r>
       <r>  -13.0005    1.0000 </r>
       <r>  -13.0005    1.0000 </r>
       <r>  -12.9942    1.0000 </r>
       <r>  -12.9901    1.0000 </r>
       <r>  -12.9520    1.0000 </r>
       <r>  -12.9466    1.0000 </r>
       <r>  -12.9438    1.0000 </r>
       <r>  -12.9437    1.0000 </r>
       <r>  -12.9437    1.0000 </r>
       <r>  -12.9437    1.0000 </r>
       <r>  -12.9403    1.0000 </r>
       <r>  -12.9381    1.0000 </r>
       <r>  -12.9311    1.0000 </r>
       <r>  -12.9311    1.0000 </r>
       <r>  -12.9289    1.0000 </r>
       <r>  -12.9259    1.0000 </r>
       <r>   -2.5048    1.0000 </r>
       <r>   -2.5047    1.0000 </r>
       <r>   -2.5047    1.0000 </r>
       <r>   -2.5046    1.0000 </r>
       <r>   -2.5042    1.0000 </r>
       <r>   -2.5042    1.0000 </r>
       <r>   -2.5041    1.0000 </r>
       <r>   -2.5041    1.0000 </r>
       <r>   -2.2877    1.0000 </r>
       <r>   -2.2876    1.0000 </r>
       <r>   -2.2876    1.0000 </r>
       <r>   -2.2876    1.0000 </r>
       <r>   -2.2742    1.0000 </r>
       <r>   -2.2741    1.0000 </r>
       <r>   -2.1422    1.0000 </r>
       <r>   -2.1388    1.0000 </r>
       <r>   -2.1364    1.0000 </r>
       <r>   -2.1364    1.0000 </r>
       <r>   -2.1363    1.0000 </r>
       <r>   -2.1363    1.0000 </r>
       <r>   -2.1341    1.0000 </r>
       <r>   -2.1309    1.0000 </r>
       <r>   -1.9874    1.0000 </r>
       <r>   -1.9873    1.0000 </r>
       <r>   -1.9861    1.0000 </r>
       <r>   -1.9855    1.0000 </r>
       <r>   -1.9855    1.0000 </r>
       <r>   -1.9854    1.0000 </r>
       <r>   -1.9837    1.0000 </r>
       <r>   -1.9836    1.0000 </r>
       <r>   -1.8099    1.0000 </r>
       <r>   -1.8093    1.0000 </r>
       <r>   -1.8088    1.0000 </r>
       <r>   -1.8087    1.0000 </r>
       <r>   -1.8087    1.0000 </r>
       <r>   -1.8086    1.0000 </r>
       <r>   -1.8082    1.0000 </r>
       <r>   -1.8073    1.0000 </r>
       <r>   -1.4978    1.0000 </r>
       <r>   -1.4978    1.0000 </r>
       <r>   -1.4977    1.0000 </r>
       <r>   -1.4977    1.0000 </r>
       <r>   -1.3807    1.0000 </r>
       <r>   -1.3806    1.0000 </r>
       <r>   -1.3804    1.0000 </r>
       <r>   -1.3804    1.0000 </r>
       <r>   -1.2131    1.0000 </r>
       <r>   -1.2131    1.0000 </r>
       <r>   -1.2127    1.0000 </r>
       <r>   -1.2123    1.0000 </r>
       <r>   -1.1933    1.0000 </r>
       <r>   -1.1933    1.0000 </r>
       <r>   -1.1927    1.0000 </r>
       <r>   -1.1913    1.0000 </r>
       <r>   -1.1912    1.0000 </r>
       <r>   -1.1908    1.0000 </r>
       <r>   -1.1899    1.0000 </r>
       <r>   -1.1891    1.0000 </r>
       <r>   -1.1750    1.0000 </r>
       <r>   -1.1750    1.0000 </r>
       <r>   -1.1743    1.0000 </r>
       <r>   -1.1743    1.0000 </r>
       <r>   -1.1742    1.0000 </r>
       <r>   -1.1740    1.0000 </r>
       <r>   -1.1740    1.0000 </r>
       <r>   -1.1737    1.0000 </r>
       <r>   -1.1605    1.0000 </r>
       <r>   -1.1601    1.0000 </r>
       <r>   -1.1595    1.0000 </r>
       <r>   -1.1593    1.0000 </r>
       <r>   -1.1590    1.0000 </r>
       <r>   -1.1585    1.0000 </r>
       <r>   -1.1580    1.0000 </r>
       <r>   -1.1566    1.0000 </r>
       <r>   -1.0833    1.0000 </r>
       <r>   -1.0828    1.0000 </r>
       <r>   -0.9473    1.0000 </r>
       <r>   -0.9471    1.0000 </r>
       <r>   -0.9469    1.0000 </r>
       <r>   -0.9469    1.0000 </r>
       <r>   -0.9469    1.0000 </r>
       <r>   -0.9468    1.0000 </r>
       <r>   -0.9468    1.0000 </r>
       <r>   -0.9463    1.0000 </r>
       <r>   -0.9381    1.0000 </r>
       <r>   -0.9347    1.0000 </r>
       <r>   -0.9325    1.0000 </r>
       <r>   -0.9323    1.0000 </r>
       <r>   -0.9323    1.0000 </r>
       <r>   -0.9323    1.0000 </r>
       <r>   -0.9298    1.0000 </r>
       <r>   -0.9264    1.0000 </r>
       <r>   -0.7683    1.0000 </r>
       <r>   -0.7683    1.0000 </r>
       <r>   -0.7682    1.0000 </r>
       <r>   -0.7679    1.0000 </r>
       <r>    5.0224    0.0000 </r>
       <r>    5.0224    0.0000 </r>
       <r>    6.7141    0.0000 </r>
       <r>    6.7165    0.0000 </r>
       <r>    6.7183    0.0000 </r>
       <r>    6.7183    0.0000 </r>
       <r>    6.7183    0.0000 </r>
       <r>    6.7184    0.0000 </r>
       <r>    6.7202    0.0000 </r>
       <r>    6.7226    0.0000 </r>
       <r>    6.8422    0.0000 </r>
       <r>    6.8423    0.0000 </r>
       <r>    6.8427    0.0000 </r>
       <r>    6.8427    0.0000 </r>
       <r>    6.8437    0.0000 </r>
       <r>    6.8437    0.0000 </r>
       <r>    6.8441    0.0000 </r>
       <r>    6.8442    0.0000 </r>
       <r>    6.9711    0.0000 </r>
       <r>    6.9711    0.0000 </r>
       <r>    7.3625    0.0000 </r>
       <r>    7.3625    0.0000 </r>
       <r>    7.3626    0.0000 </r>
       <r>    7.3626    0.0000 </r>
       <r>    7.4802    0.0000 </r>
       <r>    7.4803    0.0000 </r>
       <r>    7.7146    0.0000 </r>
       <r>    7.7146    0.0000 </r>
       <r>    7.7146    0.0000 </r>
       <r>    7.7146    0.0000 </r>
       <r>    8.2622    0.0000 </r>
       <r>    8.2636    0.0000 </r>
       <r>    8.2658    0.0000 </r>
       <r>    8.2659    0.0000 </r>
       <r>    8.2659    0.0000 </r>
       <r>    8.2659    0.0000 </r>
       <r>    8.2683    0.0000 </r>
       <r>    8.2697    0.0000 </r>
       <r>    8.5343    0.0000 </r>
       <r>    8.5358    0.0000 </r>
       <r>    8.5361    0.0000 </r>
       <r>    8.5369    0.0000 </r>
       <r>    8.5374    0.0000 </r>
       <r>    8.5376    0.0000 </r>
       <r>    8.5380    0.0000 </r>
       <r>    8.5382    0.0000 </r>
       <r>    8.5386    0.0000 </r>
       <r>    8.5387    0.0000 </r>
       <r>    8.5394    0.0000 </r>
       <r>    8.5397    0.0000 </r>
       <r>    8.5398    0.0000 </r>
       <r>    8.5409    0.0000 </r>
       <r>    8.5414    0.0000 </r>
       <r>    8.5431    0.0000 </r>
       <r>    8.9433    0.0000 </r>
       <r>    8.9474    0.0000 </r>
       <r>    8.9509    0.0000 </r>
       <r>    8.9509    0.0000 </r>
       <r>    8.9509    0.0000 </r>
       <r>    8.9509    0.0000 </r>
       <r>    8.9544    0.0000 </r>
       <r>    8.9584    0.0000 </r>
       <r>    9.4946    0.0000 </r>
       <r>    9.5216    0.0000 </r>
      </set>
      <set comment="kpoint 4">
       <r>  -21.2982    1.0000 </r>
       <r>  -21.2982    1.0000 </r>
       <r>  -21.2979    1.0000 </r>
       <r>  -21.2979    1.0000 </r>
       <r>  -21.2965    1.0000 </r>
       <r>  -21.2964    1.0000 </r>
       <r>  -21.2962    1.0000 </r>
       <r>  -21.2962    1.0000 </r>
       <r>  -21.2951    1.0000 </r>
       <r>  -21.2950    1.0000 </r>
       <r>  -21.2949    1.0000 </r>
       <r>  -21.2949    1.0000 </r>
       <r>  -21.2935    1.0000 </r>
       <r>  -21.2935    1.0000 </r>
       <r>  -21.2934    1.0000 </r>
       <r>  -21.2933    1.0000 </r>
       <r>  -21.2922    1.0000 </r>
       <r>  -21.2922    1.0000 </r>
       <r>  -21.2920    1.0000 </r>
       <r>  -21.2920    1.0000 </r>
       <r>  -21.2906    1.0000 </r>
       <r>  -21.2905    1.0000 </r>
       <r>  -21.2905    1.0000 </r>
       <r>  -21.2904    1.0000 </r>
       <r>  -21.2896    1.0000 </r>
       <r>  -21.2896    1.0000 </r>
       <r>  -21.2880    1.0000 </r>
       <r>  -21.2880    1.0000 </r>
       <r>  -21.2876    1.0000 </r>
       <r>  -21.2876    1.0000 </r>
       <r>  -21.2864    1.0000 </r>
       <r>  -21.2863    1.0000 </r>
       <r>  -21.2814    1.0000 </r>
       <r>  -21.2813    1.0000 </r>
       <r>  -21.2809    1.0000 </r>
       <r>  -21.2808    1.0000 </r>
       <r>  -21.2805    1.0000 </r>
       <r>  -21.2805    1.0000 </r>
       <r>  -21.2803    1.0000 </r>
       <r>  -21.2803    1.0000 </r>
       <r>  -21.2801    1.0000 </r>
       <r>  -21.2801    1.0000 </r>
       <r>  -21.2799    1.0000 </r>
       <r>  -21.2798    1.0000 </r>
       <r>  -21.2785    1.0000 </r>
       <r>  -21.2785    1.0000 </r>
       <r>  -21.2784    1.0000 </r>
       <r>  -21.2783    1.0000 </r>
       <r>  -21.2782    1.0000 </r>
       <r>  -21.2782    1.0000 </r>
       <r>  -21.2782    1.0000 </r>
       <r>  -21.2781    1.0000 </r>
[...]
      </set>
     </set>
    </set>
   </array>
  </eigenvalues>
  <separator name="orbital magnetization" >
   <v name="MAGDIPOLOUT">      0.00000000      0.00000000      0.00000000</v>
  </separator>
  <dos>
   <i name="efermi">     -0.55059521 </i>
   <total>
    <array>
     <dimension dim="1">gridpoints</dimension>
     <dimension dim="2">spin</dimension>
     <field>energy</field>
     <field>total</field>
     <field>integrated</field>
     <set>
      <set comment="spin 1">
       <r>   -22.8452     0.0000     0.0000 </r>
       <r>   -22.7321     0.0000     0.0000 </r>
       <r>   -22.6191     0.0000     0.0000 </r>
       <r>   -22.5061     0.0000     0.0000 </r>
       <r>   -22.3931     0.0000     0.0000 </r>
       <r>   -22.2800     0.0000     0.0000 </r>
       <r>   -22.1670     0.0000     0.0000 </r>
       <r>   -22.0540     0.0000     0.0000 </r>
       <r>   -21.9409     0.0000     0.0000 </r>
       <r>   -21.8279     0.0000     0.0000 </r>
       <r>   -21.7149     0.0000     0.0000 </r>
       <r>   -21.6019     0.0000     0.0000 </r>
       <r>   -21.4888     0.0000     0.0000 </r>
       <r>   -21.3758     0.0000     0.0000 </r>
       <r>   -21.2628  1468.7747   166.0111 </r>
       <r>   -21.1498   229.9351   192.0000 </r>
       <r>   -21.0367     0.0000   192.0000 </r>
       <r>   -20.9237     0.0000   192.0000 </r>
       <r>   -20.8107     0.0000   192.0000 </r>
       <r>   -20.6976     0.0000   192.0000 </r>
       <r>   -20.5846     0.0000   192.0000 </r>
       <r>   -20.4716     0.0000   192.0000 </r>
       <r>   -20.3586     0.0000   192.0000 </r>
       <r>   -20.2455     0.0000   192.0000 </r>
       <r>   -20.1325     0.0000   192.0000 </r>
       <r>   -20.0195     0.0000   192.0000 </r>
       <r>   -19.9065     0.0000   192.0000 </r>
       <r>   -19.7934     0.0000   192.0000 </r>
       <r>   -19.6804     0.0000   192.0000 </r>
       <r>   -19.5674     0.0000   192.0000 </r>
       <r>   -19.4544     0.0000   192.0000 </r>
       <r>   -19.3413     0.0000   192.0000 </r>
       <r>   -19.2283     0.0000   192.0000 </r>
       <r>   -19.1153     0.0000   192.0000 </r>
       <r>   -19.0022     0.0000   192.0000 </r>
       <r>   -18.8892     0.0000   192.0000 </r>
       <r>   -18.7762     0.0000   192.0000 </r>
       <r>   -18.6632     0.0000   192.0000 </r>
       <r>   -18.5501     0.0000   192.0000 </r>
       <r>   -18.4371     0.0000   192.0000 </r>
       <r>   -18.3241     0.0000   192.0000 </r>
       <r>   -18.2111     0.0000   192.0000 </r>
       <r>   -18.0980     0.0000   192.0000 </r>
       <r>   -17.9850     0.0000   192.0000 </r>
       <r>   -17.8720     0.0000   192.0000 </r>
       <r>   -17.7589     0.0000   192.0000 </r>
       <r>   -17.6459     0.0000   192.0000 </r>
       <r>   -17.5329     0.0000   192.0000 </r>
       <r>   -17.4199     0.0000   192.0000 </r>
       <r>   -17.3068     0.0000   192.0000 </r>
       <r>   -17.1938     0.0000   192.0000 </r>
       <r>   -17.0808     0.0000   192.0000 </r>
       <r>   -16.9678     0.0000   192.0000 </r>
       <r>   -16.8547     0.0000   192.0000 </r>
       <r>   -16.7417     0.0000   192.0000 </r>
       <r>   -16.6287     0.0000   192.0000 </r>
       <r>   -16.5157     0.0000   192.0000 </r>
       <r>   -16.4026     0.0000   192.0000 </r>
       <r>   -16.2896     0.0000   192.0000 </r>
       <r>   -16.1766     0.0000   192.0000 </r>
       <r>   -16.0635     0.0000   192.0000 </r>
       <r>   -15.9505     0.0000   192.0000 </r>
       <r>   -15.8375     0.0000   192.0000 </r>
       <r>   -15.7245     0.0000   192.0000 </r>
       <r>   -15.6114     0.0000   192.0000 </r>
       <r>   -15.4984     0.0000   192.0000 </r>
       <r>   -15.3854     0.0000   192.0000 </r>
       <r>   -15.2724     0.0000   192.0000 </r>
       <r>   -15.1593     0.0000   192.0000 </r>
       <r>   -15.0463     0.0000   192.0000 </r>
       <r>   -14.9333     0.0000   192.0000 </r>
       <r>   -14.8202     0.0000   192.0000 </r>
       <r>   -14.7072     0.0000   192.0000 </r>
       <r>   -14.5942     0.0000   192.0000 </r>
       <r>   -14.4812     0.0000   192.0000 </r>
       <r>   -14.3681     0.0000   192.0000 </r>
       <r>   -14.2551     0.0000   192.0000 </r>
       <r>   -14.1421     0.0000   192.0000 </r>
       <r>   -14.0291     0.0000   192.0000 </r>
       <r>   -13.9160     0.0000   192.0000 </r>
       <r>   -13.8030     0.0000   192.0000 </r>
       <r>   -13.6900     0.0000   192.0000 </r>
       <r>   -13.5770     0.0000   192.0000 </r>
       <r>   -13.4639     0.0000   192.0000 </r>
       <r>   -13.3509     1.5365   192.1737 </r>
       <r>   -13.2379    22.9085   194.7629 </r>
       <r>   -13.1248    47.6769   200.1518 </r>
       <r>   -13.0118   135.1211   215.4243 </r>
       <r>   -12.8988   357.1530   255.7929 </r>
       <r>   -12.7858     1.8259   256.0000 </r>
       <r>   -12.6727     0.0000   256.0000 </r>
       <r>   -12.5597     0.0000   256.0000 </r>
       <r>   -12.4467     0.0000   256.0000 </r>
       <r>   -12.3337     0.0000   256.0000 </r>
       <r>   -12.2206     0.0000   256.0000 </r>
       <r>   -12.1076     0.0000   256.0000 </r>
       <r>   -11.9946     0.0000   256.0000 </r>
       <r>   -11.8815     0.0000   256.0000 </r>
       <r>   -11.7685     0.0000   256.0000 </r>
       <r>   -11.6555     0.0000   256.0000 </r>
       <r>   -11.5425     0.0000   256.0000 </r>
       <r>   -11.4294     0.0000   256.0000 </r>
       <r>   -11.3164     0.0000   256.0000 </r>
       <r>   -11.2034     0.0000   256.0000 </r>
       <r>   -11.0904     0.0000   256.0000 </r>
       <r>   -10.9773     0.0000   256.0000 </r>
       <r>   -10.8643     0.0000   256.0000 </r>
       <r>   -10.7513     0.0000   256.0000 </r>
       <r>   -10.6383     0.0000   256.0000 </r>
       <r>   -10.5252     0.0000   256.0000 </r>
       <r>   -10.4122     0.0000   256.0000 </r>
       <r>   -10.2992     0.0000   256.0000 </r>
       <r>   -10.1861     0.0000   256.0000 </r>
       <r>   -10.0731     0.0000   256.0000 </r>
       <r>    -9.9601     0.0000   256.0000 </r>
       <r>    -9.8471     0.0000   256.0000 </r>
       <r>    -9.7340     0.0000   256.0000 </r>
       <r>    -9.6210     0.0000   256.0000 </r>
       <r>    -9.5080     0.0000   256.0000 </r>
       <r>    -9.3950     0.0000   256.0000 </r>
       <r>    -9.2819     0.0000   256.0000 </r>
       <r>    -9.1689     0.0000   256.0000 </r>
       <r>    -9.0559     0.0000   256.0000 </r>
       <r>    -8.9428     0.0000   256.0000 </r>
       <r>    -8.8298     0.0000   256.0000 </r>
       <r>    -8.7168     0.0000   256.0000 </r>
       <r>    -8.6038     0.0000   256.0000 </r>
       <r>    -8.4907     0.0000   256.0000 </r>
       <r>    -8.3777     0.0000   256.0000 </r>
       <r>    -8.2647     0.0000   256.0000 </r>
       <r>    -8.1517     0.0000   256.0000 </r>
       <r>    -8.0386     0.0000   256.0000 </r>
       <r>    -7.9256     0.0000   256.0000 </r>
       <r>    -7.8126     0.0000   256.0000 </r>
       <r>    -7.6995     0.0000   256.0000 </r>
       <r>    -7.5865     0.0000   256.0000 </r>
       <r>    -7.4735     0.0000   256.0000 </r>
       <r>    -7.3605     0.0000   256.0000 </r>
       <r>    -7.2474     0.0000   256.0000 </r>
       <r>    -7.1344     0.0000   256.0000 </r>
       <r>    -7.0214     0.0000   256.0000 </r>
       <r>    -6.9084     0.0000   256.0000 </r>
       <r>    -6.7953     0.0000   256.0000 </r>
       <r>    -6.6823     0.0000   256.0000 </r>
       <r>    -6.5693     0.0000   256.0000 </r>
       <r>    -6.4563     0.0000   256.0000 </r>
       <r>    -6.3432     0.0000   256.0000 </r>
       <r>    -6.2302     0.0000   256.0000 </r>
       <r>    -6.1172     0.0000   256.0000 </r>
       <r>    -6.0041     0.0000   256.0000 </r>
       <r>    -5.8911     0.0000   256.0000 </r>
       <r>    -5.7781     0.0000   256.0000 </r>
       <r>    -5.6651     0.0000   256.0000 </r>
       <r>    -5.5520     0.0000   256.0000 </r>
       <r>    -5.4390     0.0000   256.0000 </r>
       <r>    -5.3260     0.0000   256.0000 </r>
       <r>    -5.2130     0.0000   256.0000 </r>
       <r>    -5.0999     0.0000   256.0000 </r>
       <r>    -4.9869     0.0000   256.0000 </r>
       <r>    -4.8739     0.0000   256.0000 </r>
       <r>    -4.7608     0.0000   256.0000 </r>
       <r>    -4.6478     0.0000   256.0000 </r>
       <r>    -4.5348     0.0000   256.0000 </r>
       <r>    -4.4218     0.0000   256.0000 </r>
       <r>    -4.3087     0.0000   256.0000 </r>
       <r>    -4.1957     0.0000   256.0000 </r>
       <r>    -4.0827     0.0000   256.0000 </r>
       <r>    -3.9697     0.0000   256.0000 </r>
       <r>    -3.8566     0.0000   256.0000 </r>
       <r>    -3.7436     0.0000   256.0000 </r>
       <r>    -3.6306     0.0000   256.0000 </r>
       <r>    -3.5176     0.0000   256.0000 </r>
       <r>    -3.4045     0.0000   256.0000 </r>
       <r>    -3.2915     0.0000   256.0000 </r>
       <r>    -3.1785     0.0000   256.0000 </r>
       <r>    -3.0654     0.0000   256.0000 </r>
       <r>    -2.9524     0.0000   256.0000 </r>
       <r>    -2.8394     0.0000   256.0000 </r>
       <r>    -2.7264     0.2768   256.0313 </r>
       <r>    -2.6133     8.5707   257.0000 </r>
       <r>    -2.5003    32.6108   260.6859 </r>
       <r>    -2.3873    78.2377   269.5289 </r>
       <r>    -2.2743    87.2817   279.3941 </r>
       <r>    -2.1612   152.2112   296.5985 </r>
       <r>    -2.0482    67.6945   304.2500 </r>
       <r>    -1.9352    59.2497   310.9468 </r>
       <r>    -1.8221    67.4830   318.5755 </r>
       <r>    -1.7091    63.4764   325.7500 </r>
       <r>    -1.5961     0.0000   325.7500 </r>
       <r>    -1.4831    91.5417   336.0967 </r>
       <r>    -1.3700   180.5201   356.5003 </r>
       <r>    -1.2570    20.7855   358.8496 </r>
       <r>    -1.1440   262.9926   388.5749 </r>
       <r>    -1.0310   131.1932   403.4047 </r>
       <r>    -0.9179   262.7711   433.1051 </r>
       <r>    -0.8049    59.1848   439.7950 </r>
       <r>    -0.6919    66.1303   447.2695 </r>
       <r>    -0.5789     6.4576   448.0000 </r>
       <r>    -0.4658     0.0000   448.0000 </r>
       <r>    -0.3528     0.0000   448.0000 </r>
       <r>    -0.2398     0.0000   448.0000 </r>
       <r>    -0.1267     0.0000   448.0000 </r>
       <r>    -0.0137     0.0000   448.0000 </r>
       <r>     0.0993     0.0000   448.0000 </r>
       <r>     0.2123     0.0000   448.0000 </r>
       <r>     0.3254     0.0000   448.0000 </r>
       <r>     0.4384     0.0000   448.0000 </r>
       <r>     0.5514     0.0000   448.0000 </r>
       <r>     0.6644     0.0000   448.0000 </r>
       <r>     0.7775     0.0000   448.0000 </r>
       <r>     0.8905     0.0000   448.0000 </r>
       <r>     1.0035     0.0000   448.0000 </r>
       <r>     1.1166     0.0000   448.0000 </r>
       <r>     1.2296     0.0000   448.0000 </r>
       <r>     1.3426     0.0000   448.0000 </r>
       <r>     1.4556     0.0000   448.0000 </r>
       <r>     1.5687     0.0000   448.0000 </r>
       <r>     1.6817     0.0000   448.0000 </r>
       <r>     1.7947     0.0000   448.0000 </r>
       <r>     1.9077     0.0000   448.0000 </r>
       <r>     2.0208     0.0000   448.0000 </r>
       <r>     2.1338     0.0000   448.0000 </r>
       <r>     2.2468     0.0000   448.0000 </r>
       <r>     2.3598     0.0000   448.0000 </r>
       <r>     2.4729     0.0000   448.0000 </r>
       <r>     2.5859     0.0000   448.0000 </r>
       <r>     2.6989     0.0000   448.0000 </r>
       <r>     2.8120     0.0000   448.0000 </r>
       <r>     2.9250     0.0000   448.0000 </r>
       <r>     3.0380     0.0000   448.0000 </r>
       <r>     3.1510     0.0000   448.0000 </r>
       <r>     3.2641     0.0000   448.0000 </r>
       <r>     3.3771     0.0000   448.0000 </r>
       <r>     3.4901     0.0000   448.0000 </r>
       <r>     3.6031     0.0000   448.0000 </r>
       <r>     3.7162     0.0000   448.0000 </r>
       <r>     3.8292     0.0000   448.0000 </r>
       <r>     3.9422     0.0000   448.0000 </r>
       <r>     4.0553     0.0000   448.0000 </r>
       <r>     4.1683     0.0000   448.0000 </r>
       <r>     4.2813     0.0000   448.0000 </r>
       <r>     4.3943     2.2117   448.2500 </r>
       <r>     4.5074     0.0000   448.2500 </r>
       <r>     4.6204     0.0000   448.2500 </r>
       <r>     4.7334     0.0000   448.2500 </r>
       <r>     4.8464     0.0000   448.2500 </r>
       <r>     4.9595     0.0001   448.2500 </r>
       <r>     5.0725    13.2685   449.7497 </r>
       <r>     5.1855     0.0000   449.7500 </r>
       <r>     5.2985     0.0000   449.7500 </r>
       <r>     5.4116     0.0000   449.7500 </r>
       <r>     5.5246     3.9020   450.1910 </r>
       <r>     5.6376    22.6404   452.7500 </r>
       <r>     5.7507     0.0000   452.7500 </r>
       <r>     5.8637    17.4784   454.7255 </r>
       <r>     5.9767     0.2165   454.7500 </r>
       <r>     6.0897     0.0000   454.7500 </r>
       <r>     6.2028     0.0000   454.7500 </r>
       <r>     6.3158     0.0016   454.7502 </r>
       <r>     6.4288    14.4343   456.3816 </r>
       <r>     6.5418     7.6826   457.2500 </r>
       <r>     6.6549    45.9659   462.4454 </r>
       <r>     6.7679    60.1898   469.2484 </r>
       <r>     6.8809    59.5186   475.9769 </r>
       <r>     6.9940    12.7741   477.4208 </r>
       <r>     7.1070     0.7010   477.5000 </r>
       <r>     7.2200     5.4665   478.1179 </r>
       <r>     7.3330     1.6590   478.3054 </r>
       <r>     7.4461    82.5263   487.6331 </r>
       <r>     7.5591   167.7162   506.5905 </r>
       <r>     7.6721     1.4463   506.7540 </r>
       <r>     7.7851    26.5070   509.7500 </r>
       <r>     7.8982     0.3202   509.7862 </r>
       <r>     8.0112    52.7645   515.7500 </r>
       <r>     8.1242     0.0126   515.7514 </r>
       <r>     8.2373    14.4713   517.3871 </r>
       <r>     8.3503    91.6826   527.7497 </r>
       <r>     8.4633     0.0000   527.7500 </r>
       <r>     8.5763   153.7606   545.1291 </r>
       <r>     8.6894     5.4935   545.7500 </r>
       <r>     8.8024     0.0000   545.7500 </r>
       <r>     8.9154    86.5029   555.5272 </r>
       <r>     9.0284   121.5098   569.2610 </r>
       <r>     9.1415     2.1143   569.5000 </r>
       <r>     9.2545    29.3008   572.8118 </r>
       <r>     9.3675    14.9364   574.5000 </r>
       <r>     9.4805     1.6957   574.6917 </r>
       <r>     9.5936    11.5754   576.0000 </r>
       <r>     9.7066     0.0000   576.0000 </r>
       <r>     9.8196     0.0000   576.0000 </r>
       <r>     9.9327     0.0000   576.0000 </r>
       <r>    10.0457     0.0000   576.0000 </r>
       <r>    10.1587     0.0000   576.0000 </r>
       <r>    10.2717     0.0000   576.0000 </r>
       <r>    10.3848     0.0000   576.0000 </r>
       <r>    10.4978     0.0000   576.0000 </r>
       <r>    10.6108     0.0000   576.0000 </r>
       <r>    10.7238     0.0000   576.0000 </r>
       <r>    10.8369     0.0000   576.0000 </r>
       <r>    10.9499     0.0000   576.0000 </r>
       <r>    11.0629     0.0000   576.0000 </r>
      </set>
     </set>
    </array>
   </total>
  </dos>
 </calculation>
 <structure name="finalpos" >
  <crystal>
   <varray name="basis" >
    <v>      11.20400236       0.00000000       0.00000000 </v>
    <v>       0.00000000      11.20400236       0.00000000 </v>
    <v>       0.00000000       0.00000000      11.20400236 </v>
   </varray>
   <i name="volume">   1406.43470641 </i>
   <varray name="rec_basis" >
    <v>       0.08925382       0.00000000       0.00000000 </v>
    <v>       0.00000000       0.08925382       0.00000000 </v>
    <v>       0.00000000       0.00000000       0.08925382 </v>
   </varray>
  </crystal>
  <varray name="positions" >
   <v>       0.00267761       0.00000000       0.00000000 </v>
   <v>       0.25000000       0.25000000       0.00000000 </v>
   <v>       0.25000000       0.00000000       0.25000000 </v>
   <v>       0.99732239       0.25000000       0.25000000 </v>
   <v>       0.00000000       0.00000000       0.50000000 </v>
   <v>       0.25000000       0.25000000       0.50000000 </v>
   <v>       0.25000000       0.00000000       0.75000000 </v>
   <v>       0.00000000       0.25000000       0.75000000 </v>
   <v>       0.00000000       0.50000000       0.00000000 </v>
   <v>       0.25000000       0.75000000       0.00000000 </v>
   <v>       0.25000000       0.50000000       0.25000000 </v>
   <v>       0.00000000       0.75000000       0.25000000 </v>
   <v>       0.00000000       0.50000000       0.50000000 </v>
   <v>       0.25000000       0.75000000       0.50000000 </v>
   <v>       0.25000000       0.50000000       0.75000000 </v>
   <v>       0.00000000       0.75000000       0.75000000 </v>
   <v>       0.50000000       0.00000000       0.00000000 </v>
   <v>       0.75000000       0.25000000       0.00000000 </v>
   <v>       0.75000000       0.00000000       0.25000000 </v>
   <v>       0.50000000       0.25000000       0.25000000 </v>
   <v>       0.50000000       0.00000000       0.50000000 </v>
   <v>       0.75000000       0.25000000       0.50000000 </v>
   <v>       0.75000000       0.00000000       0.75000000 </v>
   <v>       0.50000000       0.25000000       0.75000000 </v>
   <v>       0.50000000       0.50000000       0.00000000 </v>
   <v>       0.75000000       0.75000000       0.00000000 </v>
   <v>       0.75000000       0.50000000       0.25000000 </v>
   <v>       0.50000000       0.75000000       0.25000000 </v>
   <v>       0.50000000       0.50000000       0.50000000 </v>
   <v>       0.75000000       0.75000000       0.50000000 </v>
   <v>       0.75000000       0.50000000       0.75000000 </v>
   <v>       0.50000000       0.75000000       0.75000000 </v>
   <v>       0.25000000       0.25000000       0.25000000 </v>
   <v>       0.00000000       0.00000000       0.25000000 </v>
   <v>       0.00000000       0.25000000       0.00000000 </v>
   <v>       0.25000000       0.00000000       0.00000000 </v>
   <v>       0.25000000       0.25000000       0.75000000 </v>
   <v>       0.00000000       0.00000000       0.75000000 </v>
   <v>       0.00000000       0.25000000       0.50000000 </v>
   <v>       0.25000000       0.00000000       0.50000000 </v>
   <v>       0.25000000       0.75000000       0.25000000 </v>
   <v>       0.00000000       0.50000000       0.25000000 </v>
   <v>       0.00000000       0.75000000       0.00000000 </v>
   <v>       0.25000000       0.50000000       0.00000000 </v>
   <v>       0.25000000       0.75000000       0.75000000 </v>
   <v>       0.00000000       0.50000000       0.75000000 </v>
   <v>       0.00000000       0.75000000       0.50000000 </v>
   <v>       0.25000000       0.50000000       0.50000000 </v>
   <v>       0.75000000       0.25000000       0.25000000 </v>
   <v>       0.50000000       0.00000000       0.25000000 </v>
   <v>       0.50000000       0.25000000       0.00000000 </v>
   <v>       0.75000000       0.00000000       0.00000000 </v>
   <v>       0.75000000       0.25000000       0.75000000 </v>
   <v>       0.50000000       0.00000000       0.75000000 </v>
   <v>       0.50000000       0.25000000       0.50000000 </v>
   <v>       0.75000000       0.00000000       0.50000000 </v>
   <v>       0.75000000       0.75000000       0.25000000 </v>
   <v>       0.50000000       0.50000000       0.25000000 </v>
   <v>       0.50000000       0.75000000       0.00000000 </v>
   <v>       0.75000000       0.50000000       0.00000000 </v>
   <v>       0.75000000       0.75000000       0.75000000 </v>
   <v>       0.50000000       0.50000000       0.75000000 </v>
   <v>       0.50000000       0.75000000       0.50000000 </v>
   <v>       0.75000000       0.50000000       0.50000000 </v>
  </varray>
 </structure>
</modeling>
