  64  64   0   0
  0.2197554E+02  0.1120400E-08  0.1120400E-08  0.1120400E-08  0.5000000E-15
  1.000000000000000E-004
  CAR 
 unknown system                          
     10.42535326    -22.81470078  301     -0.51616452      1.00000000
    -22.815  0.0000E+00  0.0000E+00
    -22.704  0.0000E+00  0.0000E+00
    -22.593  0.0000E+00  0.0000E+00
    -22.482  0.0000E+00  0.0000E+00
    -22.372  0.0000E+00  0.0000E+00
    -22.261  0.0000E+00  0.0000E+00
    -22.150  0.0000E+00  0.0000E+00
    -22.039  0.0000E+00  0.0000E+00
    -21.928  0.0000E+00  0.0000E+00
    -21.817  0.0000E+00  0.0000E+00
    -21.707  0.0000E+00  0.0000E+00
    -21.596  0.0000E+00  0.0000E+00
    -21.485  0.0000E+00  0.0000E+00
    -21.374  0.8646E-05  0.9580E-06
    -21.263  0.1479E+04  0.1639E+03
    -21.153  0.2535E+03  0.1920E+03
    -21.042  0.0000E+00  0.1920E+03
    -20.931  0.0000E+00  0.1920E+03
    -20.820  0.0000E+00  0.1920E+03
    -20.709  0.0000E+00  0.1920E+03
    -20.599  0.0000E+00  0.1920E+03
    -20.488  0.0000E+00  0.1920E+03
    -20.377  0.0000E+00  0.1920E+03
    -20.266  0.0000E+00  0.1920E+03
    -20.155  0.0000E+00  0.1920E+03
    -20.045  0.0000E+00  0.1920E+03
    -19.934  0.0000E+00  0.1920E+03
    -19.823  0.0000E+00  0.1920E+03
    -19.712  0.0000E+00  0.1920E+03
    -19.601  0.0000E+00  0.1920E+03
    -19.491  0.0000E+00  0.1920E+03
    -19.380  0.0000E+00  0.1920E+03
    -19.269  0.0000E+00  0.1920E+03
    -19.158  0.0000E+00  0.1920E+03
    -19.047  0.0000E+00  0.1920E+03
    -18.937  0.0000E+00  0.1920E+03
    -18.826  0.0000E+00  0.1920E+03
    -18.715  0.0000E+00  0.1920E+03
    -18.604  0.0000E+00  0.1920E+03
    -18.493  0.0000E+00  0.1920E+03
    -18.383  0.0000E+00  0.1920E+03
    -18.272  0.0000E+00  0.1920E+03
    -18.161  0.0000E+00  0.1920E+03
    -18.050  0.0000E+00  0.1920E+03
    -17.939  0.0000E+00  0.1920E+03
    -17.829  0.0000E+00  0.1920E+03
    -17.718  0.0000E+00  0.1920E+03
    -17.607  0.0000E+00  0.1920E+03
    -17.496  0.0000E+00  0.1920E+03
    -17.385  0.0000E+00  0.1920E+03
    -17.275  0.0000E+00  0.1920E+03
    -17.164  0.0000E+00  0.1920E+03
    -17.053  0.0000E+00  0.1920E+03
    -16.942  0.0000E+00  0.1920E+03
    -16.831  0.0000E+00  0.1920E+03
    -16.721  0.0000E+00  0.1920E+03
    -16.610  0.0000E+00  0.1920E+03
    -16.499  0.0000E+00  0.1920E+03
    -16.388  0.0000E+00  0.1920E+03
    -16.277  0.0000E+00  0.1920E+03
    -16.167  0.0000E+00  0.1920E+03
    -16.056  0.0000E+00  0.1920E+03
    -15.945  0.0000E+00  0.1920E+03
    -15.834  0.0000E+00  0.1920E+03
    -15.723  0.0000E+00  0.1920E+03
    -15.613  0.0000E+00  0.1920E+03
    -15.502  0.0000E+00  0.1920E+03
    -15.391  0.0000E+00  0.1920E+03
    -15.280  0.0000E+00  0.1920E+03
    -15.169  0.0000E+00  0.1920E+03
    -15.059  0.0000E+00  0.1920E+03
    -14.948  0.0000E+00  0.1920E+03
    -14.837  0.0000E+00  0.1920E+03
    -14.726  0.0000E+00  0.1920E+03
    -14.615  0.0000E+00  0.1920E+03
    -14.505  0.0000E+00  0.1920E+03
    -14.394  0.0000E+00  0.1920E+03
    -14.283  0.0000E+00  0.1920E+03
    -14.172  0.0000E+00  0.1920E+03
    -14.061  0.0000E+00  0.1920E+03
    -13.951  0.0000E+00  0.1920E+03
    -13.840  0.0000E+00  0.1920E+03
    -13.729  0.0000E+00  0.1920E+03
    -13.618  0.0000E+00  0.1920E+03
    -13.507  0.0000E+00  0.1920E+03
    -13.397  0.6881E-02  0.1920E+03
    -13.286  0.1098E+02  0.1932E+03
    -13.175  0.4325E+02  0.1980E+03
    -13.064  0.1016E+03  0.2093E+03
    -12.953  0.2750E+03  0.2397E+03
    -12.843  0.1468E+03  0.2560E+03
    -12.732  0.0000E+00  0.2560E+03
    -12.621  0.0000E+00  0.2560E+03
    -12.510  0.0000E+00  0.2560E+03
    -12.399  0.0000E+00  0.2560E+03
    -12.289  0.0000E+00  0.2560E+03
    -12.178  0.0000E+00  0.2560E+03
    -12.067  0.0000E+00  0.2560E+03
    -11.956  0.0000E+00  0.2560E+03
    -11.845  0.0000E+00  0.2560E+03
    -11.735  0.0000E+00  0.2560E+03
    -11.624  0.0000E+00  0.2560E+03
    -11.513  0.0000E+00  0.2560E+03
    -11.402  0.0000E+00  0.2560E+03
    -11.291  0.0000E+00  0.2560E+03
    -11.181  0.0000E+00  0.2560E+03
    -11.070  0.0000E+00  0.2560E+03
    -10.959  0.0000E+00  0.2560E+03
    -10.848  0.0000E+00  0.2560E+03
    -10.737  0.0000E+00  0.2560E+03
    -10.627  0.0000E+00  0.2560E+03
    -10.516  0.0000E+00  0.2560E+03
    -10.405  0.0000E+00  0.2560E+03
    -10.294  0.0000E+00  0.2560E+03
    -10.183  0.0000E+00  0.2560E+03
    -10.073  0.0000E+00  0.2560E+03
     -9.962  0.0000E+00  0.2560E+03
     -9.851  0.0000E+00  0.2560E+03
     -9.740  0.0000E+00  0.2560E+03
     -9.629  0.0000E+00  0.2560E+03
     -9.519  0.0000E+00  0.2560E+03
     -9.408  0.0000E+00  0.2560E+03
     -9.297  0.0000E+00  0.2560E+03
     -9.186  0.0000E+00  0.2560E+03
     -9.075  0.0000E+00  0.2560E+03
     -8.965  0.0000E+00  0.2560E+03
     -8.854  0.0000E+00  0.2560E+03
     -8.743  0.0000E+00  0.2560E+03
     -8.632  0.0000E+00  0.2560E+03
     -8.521  0.0000E+00  0.2560E+03
     -8.411  0.0000E+00  0.2560E+03
     -8.300  0.0000E+00  0.2560E+03
     -8.189  0.0000E+00  0.2560E+03
     -8.078  0.0000E+00  0.2560E+03
     -7.967  0.0000E+00  0.2560E+03
     -7.857  0.0000E+00  0.2560E+03
     -7.746  0.0000E+00  0.2560E+03
     -7.635  0.0000E+00  0.2560E+03
     -7.524  0.0000E+00  0.2560E+03
     -7.413  0.0000E+00  0.2560E+03
     -7.303  0.0000E+00  0.2560E+03
     -7.192  0.0000E+00  0.2560E+03
     -7.081  0.0000E+00  0.2560E+03
     -6.970  0.0000E+00  0.2560E+03
     -6.859  0.0000E+00  0.2560E+03
     -6.749  0.0000E+00  0.2560E+03
     -6.638  0.0000E+00  0.2560E+03
     -6.527  0.0000E+00  0.2560E+03
     -6.416  0.0000E+00  0.2560E+03
     -6.305  0.0000E+00  0.2560E+03
     -6.195  0.0000E+00  0.2560E+03
     -6.084  0.0000E+00  0.2560E+03
     -5.973  0.0000E+00  0.2560E+03
     -5.862  0.0000E+00  0.2560E+03
     -5.751  0.0000E+00  0.2560E+03
     -5.641  0.0000E+00  0.2560E+03
     -5.530  0.0000E+00  0.2560E+03
     -5.419  0.0000E+00  0.2560E+03
     -5.308  0.0000E+00  0.2560E+03
     -5.197  0.0000E+00  0.2560E+03
     -5.087  0.0000E+00  0.2560E+03
     -4.976  0.0000E+00  0.2560E+03
     -4.865  0.0000E+00  0.2560E+03
     -4.754  0.0000E+00  0.2560E+03
     -4.643  0.0000E+00  0.2560E+03
     -4.533  0.0000E+00  0.2560E+03
     -4.422  0.0000E+00  0.2560E+03
     -4.311  0.0000E+00  0.2560E+03
     -4.200  0.0000E+00  0.2560E+03
     -4.089  0.0000E+00  0.2560E+03
     -3.979  0.0000E+00  0.2560E+03
     -3.868  0.0000E+00  0.2560E+03
     -3.757  0.0000E+00  0.2560E+03
     -3.646  0.0000E+00  0.2560E+03
     -3.535  0.0000E+00  0.2560E+03
     -3.425  0.0000E+00  0.2560E+03
     -3.314  0.0000E+00  0.2560E+03
     -3.203  0.0000E+00  0.2560E+03
     -3.092  0.0000E+00  0.2560E+03
     -2.981  0.0000E+00  0.2560E+03
     -2.871  0.0000E+00  0.2560E+03
     -2.760  0.1020E-03  0.2560E+03
     -2.649  0.9024E+01  0.2570E+03
     -2.538  0.4429E+00  0.2570E+03
     -2.427  0.6462E+02  0.2642E+03
     -2.317  0.9271E+02  0.2745E+03
     -2.206  0.1725E+03  0.2936E+03
     -2.095  0.9609E+02  0.3042E+03
     -1.984  0.2895E+02  0.3074E+03
     -1.873  0.5321E+02  0.3133E+03
     -1.763  0.1118E+03  0.3257E+03
     -1.652  0.1408E+00  0.3258E+03
     -1.541  0.1851E+00  0.3258E+03
     -1.430  0.2042E+03  0.3484E+03
     -1.319  0.8050E+02  0.3573E+03
     -1.209  0.8609E+02  0.3668E+03
     -1.098  0.2862E+03  0.3986E+03
     -0.987  0.1186E+03  0.4117E+03
     -0.876  0.2259E+03  0.4367E+03
     -0.765  0.5732E+02  0.4431E+03
     -0.655  0.4278E+02  0.4478E+03
     -0.544  0.1575E+01  0.4480E+03
     -0.433  0.0000E+00  0.4480E+03
     -0.322  0.0000E+00  0.4480E+03
     -0.211  0.0000E+00  0.4480E+03
     -0.101  0.0000E+00  0.4480E+03
      0.010  0.0000E+00  0.4480E+03
      0.121  0.0000E+00  0.4480E+03
      0.232  0.0000E+00  0.4480E+03
      0.343  0.0000E+00  0.4480E+03
      0.453  0.0000E+00  0.4480E+03
      0.564  0.0000E+00  0.4480E+03
      0.675  0.0000E+00  0.4480E+03
      0.786  0.0000E+00  0.4480E+03
      0.897  0.0000E+00  0.4480E+03
      1.007  0.0000E+00  0.4480E+03
      1.118  0.0000E+00  0.4480E+03
      1.229  0.0000E+00  0.4480E+03
      1.340  0.0000E+00  0.4480E+03
      1.451  0.0000E+00  0.4480E+03
      1.561  0.0000E+00  0.4480E+03
      1.672  0.0000E+00  0.4480E+03
      1.783  0.0000E+00  0.4480E+03
      1.894  0.0000E+00  0.4480E+03
      2.005  0.0000E+00  0.4480E+03
      2.115  0.0000E+00  0.4480E+03
      2.226  0.0000E+00  0.4480E+03
      2.337  0.0000E+00  0.4480E+03
      2.448  0.0000E+00  0.4480E+03
      2.559  0.0000E+00  0.4480E+03
      2.669  0.0000E+00  0.4480E+03
      2.780  0.0000E+00  0.4480E+03
      2.891  0.0000E+00  0.4480E+03
      3.002  0.0000E+00  0.4480E+03
      3.113  0.0000E+00  0.4480E+03
      3.223  0.0000E+00  0.4480E+03
      3.334  0.0000E+00  0.4480E+03
      3.445  0.0000E+00  0.4480E+03
      3.556  0.0000E+00  0.4480E+03
      3.667  0.0000E+00  0.4480E+03
      3.777  0.0000E+00  0.4480E+03
      3.888  0.0000E+00  0.4480E+03
      3.999  0.0000E+00  0.4480E+03
      4.110  0.0000E+00  0.4480E+03
      4.221  0.0000E+00  0.4480E+03
      4.331  0.5926E+00  0.4481E+03
      4.442  0.1664E+01  0.4482E+03
      4.553  0.0000E+00  0.4482E+03
      4.664  0.0000E+00  0.4482E+03
      4.775  0.0000E+00  0.4482E+03
      4.885  0.0000E+00  0.4482E+03
      4.996  0.4321E+00  0.4483E+03
      5.107  0.1311E+02  0.4497E+03
      5.218  0.0000E+00  0.4498E+03
      5.329  0.0000E+00  0.4498E+03
      5.439  0.2289E-10  0.4498E+03
      5.550  0.2095E+02  0.4521E+03
      5.661  0.6130E+01  0.4528E+03
      5.772  0.2407E-03  0.4528E+03
      5.883  0.1805E+02  0.4547E+03
      5.993  0.7037E-03  0.4548E+03
      6.104  0.0000E+00  0.4548E+03
      6.215  0.0000E+00  0.4548E+03
      6.326  0.1890E-01  0.4548E+03
      6.437  0.1608E+02  0.4565E+03
      6.547  0.6466E+01  0.4573E+03
      6.658  0.4927E+02  0.4627E+03
      6.769  0.5902E+02  0.4692E+03
      6.880  0.6065E+02  0.4760E+03
      6.991  0.1266E+02  0.4774E+03
      7.101  0.1145E+01  0.4775E+03
      7.212  0.4365E+01  0.4780E+03
      7.323  0.2474E+01  0.4783E+03
      7.434  0.8123E+02  0.4873E+03
      7.545  0.1663E+03  0.5057E+03
      7.655  0.9621E+01  0.5068E+03
      7.766  0.2707E+02  0.5097E+03
      7.877  0.1477E-02  0.5098E+03
      7.988  0.5415E+02  0.5157E+03
      8.099  0.5654E-05  0.5158E+03
      8.209  0.1351E+02  0.5172E+03
      8.320  0.9319E+02  0.5276E+03
      8.431  0.1601E+01  0.5278E+03
      8.542  0.4480E+02  0.5327E+03
      8.653  0.5899E+02  0.5392E+03
      8.763  0.8768E-15  0.5392E+03
      8.874  0.6445E+01  0.5400E+03
      8.985  0.3642E+02  0.5440E+03
      9.096  0.0000E+00  0.5440E+03
      9.207  0.0000E+00  0.5440E+03
      9.317  0.0000E+00  0.5440E+03
      9.428  0.0000E+00  0.5440E+03
      9.539  0.0000E+00  0.5440E+03
      9.650  0.0000E+00  0.5440E+03
      9.761  0.0000E+00  0.5440E+03
      9.871  0.0000E+00  0.5440E+03
      9.982  0.0000E+00  0.5440E+03
     10.093  0.0000E+00  0.5440E+03
     10.204  0.0000E+00  0.5440E+03
     10.315  0.0000E+00  0.5440E+03
     10.425  0.0000E+00  0.5440E+03
