       N       E                     dE             d eps       ncg     rms          rms(c)
DAV:   1     0.459413099607E+04    0.45941E+04   -0.16952E+05  3440   0.132E+03
DAV:   2     0.483479524835E+03   -0.41107E+04   -0.39368E+04  3576   0.393E+02
DAV:   3    -0.189100592519E+03   -0.67258E+03   -0.66649E+03  3840   0.175E+02
DAV:   4    -0.227361432546E+03   -0.38261E+02   -0.38020E+02  3784   0.414E+01
DAV:   5    -0.228965318090E+03   -0.16039E+01   -0.16012E+01  4072   0.850E+00    0.106E+01
DAV:   6    -0.224155309671E+03    0.48100E+01   -0.10021E+01  3952   0.557E+00    0.776E+00
DAV:   7    -0.223777871304E+03    0.37744E+00   -0.24376E+00  4232   0.259E+00    0.526E+00
DAV:   8    -0.223905366549E+03   -0.12750E+00   -0.25912E-01  3576   0.126E+00    0.137E+00
DAV:   9    -0.223897490182E+03    0.78764E-02   -0.15749E-02  4320   0.302E-01    0.548E-01
DAV:  10    -0.223901478972E+03   -0.39888E-02   -0.18205E-02  3600   0.221E-01    0.160E-01
DAV:  11    -0.223901023894E+03    0.45508E-03   -0.10821E-03  3968   0.675E-02    0.754E-02
DAV:  12    -0.223900972991E+03    0.50904E-04   -0.17897E-04  4128   0.207E-02    0.113E-02
DAV:  13    -0.223900978146E+03   -0.51560E-05   -0.21991E-05  3720   0.715E-03    0.478E-03
DAV:  14    -0.223900977090E+03    0.10569E-05   -0.22922E-06  4424   0.313E-03    0.143E-02
DAV:  15    -0.223900978418E+03   -0.13280E-05   -0.18645E-06  3288   0.255E-03    0.659E-03
DAV:  16    -0.223900979513E+03   -0.10950E-05   -0.44437E-07  3624   0.149E-03    0.123E-03
DAV:  17    -0.223900979564E+03   -0.51048E-07   -0.50170E-08  3120   0.456E-04    0.453E-04
DAV:  18    -0.223900979571E+03   -0.75961E-08   -0.50364E-09  1952   0.229E-04
   1 F= -.22390098E+03 E0= -.22390098E+03  d E =-.379704E-26
