   2   2   0   0
  0.2197554E+02  0.3961213E-09  0.3961213E-09  0.3961213E-09  0.5000000E-15
  1.000000000000000E-004
  CAR 
 unknown system                          
     41.02127809    -24.27272693  301     -0.49482677      1.00000000
    -24.273  0.0000E+00  0.0000E+00
    -24.055  0.0000E+00  0.0000E+00
    -23.837  0.0000E+00  0.0000E+00
    -23.620  0.0000E+00  0.0000E+00
    -23.402  0.0000E+00  0.0000E+00
    -23.184  0.0000E+00  0.0000E+00
    -22.967  0.0000E+00  0.0000E+00
    -22.749  0.0000E+00  0.0000E+00
    -22.532  0.0000E+00  0.0000E+00
    -22.314  0.0000E+00  0.0000E+00
    -22.096  0.0000E+00  0.0000E+00
    -21.879  0.0000E+00  0.0000E+00
    -21.661  0.0000E+00  0.0000E+00
    -21.443  0.0000E+00  0.0000E+00
    -21.226  0.2756E+02  0.5999E+01
    -21.008  0.0000E+00  0.6000E+01
    -20.790  0.0000E+00  0.6000E+01
    -20.573  0.0000E+00  0.6000E+01
    -20.355  0.0000E+00  0.6000E+01
    -20.137  0.0000E+00  0.6000E+01
    -19.920  0.0000E+00  0.6000E+01
    -19.702  0.0000E+00  0.6000E+01
    -19.484  0.0000E+00  0.6000E+01
    -19.267  0.0000E+00  0.6000E+01
    -19.049  0.0000E+00  0.6000E+01
    -18.832  0.0000E+00  0.6000E+01
    -18.614  0.0000E+00  0.6000E+01
    -18.396  0.0000E+00  0.6000E+01
    -18.179  0.0000E+00  0.6000E+01
    -17.961  0.0000E+00  0.6000E+01
    -17.743  0.0000E+00  0.6000E+01
    -17.526  0.0000E+00  0.6000E+01
    -17.308  0.0000E+00  0.6000E+01
    -17.090  0.0000E+00  0.6000E+01
    -16.873  0.0000E+00  0.6000E+01
    -16.655  0.0000E+00  0.6000E+01
    -16.437  0.0000E+00  0.6000E+01
    -16.220  0.0000E+00  0.6000E+01
    -16.002  0.0000E+00  0.6000E+01
    -15.785  0.0000E+00  0.6000E+01
    -15.567  0.0000E+00  0.6000E+01
    -15.349  0.0000E+00  0.6000E+01
    -15.132  0.0000E+00  0.6000E+01
    -14.914  0.0000E+00  0.6000E+01
    -14.696  0.0000E+00  0.6000E+01
    -14.479  0.0000E+00  0.6000E+01
    -14.261  0.0000E+00  0.6000E+01
    -14.043  0.0000E+00  0.6000E+01
    -13.826  0.0000E+00  0.6000E+01
    -13.608  0.0000E+00  0.6000E+01
    -13.390  0.8386E-03  0.6000E+01
    -13.173  0.6965E+00  0.6183E+01
    -12.955  0.4794E+01  0.7512E+01
    -12.737  0.0000E+00  0.8000E+01
    -12.520  0.0000E+00  0.8000E+01
    -12.302  0.0000E+00  0.8000E+01
    -12.085  0.0000E+00  0.8000E+01
    -11.867  0.0000E+00  0.8000E+01
    -11.649  0.0000E+00  0.8000E+01
    -11.432  0.0000E+00  0.8000E+01
    -11.214  0.0000E+00  0.8000E+01
    -10.996  0.0000E+00  0.8000E+01
    -10.779  0.0000E+00  0.8000E+01
    -10.561  0.0000E+00  0.8000E+01
    -10.343  0.0000E+00  0.8000E+01
    -10.126  0.0000E+00  0.8000E+01
     -9.908  0.0000E+00  0.8000E+01
     -9.690  0.0000E+00  0.8000E+01
     -9.473  0.0000E+00  0.8000E+01
     -9.255  0.0000E+00  0.8000E+01
     -9.037  0.0000E+00  0.8000E+01
     -8.820  0.0000E+00  0.8000E+01
     -8.602  0.0000E+00  0.8000E+01
     -8.385  0.0000E+00  0.8000E+01
     -8.167  0.0000E+00  0.8000E+01
     -7.949  0.0000E+00  0.8000E+01
     -7.732  0.0000E+00  0.8000E+01
     -7.514  0.0000E+00  0.8000E+01
     -7.296  0.0000E+00  0.8000E+01
     -7.079  0.0000E+00  0.8000E+01
     -6.861  0.0000E+00  0.8000E+01
     -6.643  0.0000E+00  0.8000E+01
     -6.426  0.0000E+00  0.8000E+01
     -6.208  0.0000E+00  0.8000E+01
     -5.990  0.0000E+00  0.8000E+01
     -5.773  0.0000E+00  0.8000E+01
     -5.555  0.0000E+00  0.8000E+01
     -5.337  0.0000E+00  0.8000E+01
     -5.120  0.0000E+00  0.8000E+01
     -4.902  0.0000E+00  0.8000E+01
     -4.685  0.0000E+00  0.8000E+01
     -4.467  0.0000E+00  0.8000E+01
     -4.249  0.0000E+00  0.8000E+01
     -4.032  0.0000E+00  0.8000E+01
     -3.814  0.0000E+00  0.8000E+01
     -3.596  0.0000E+00  0.8000E+01
     -3.379  0.0000E+00  0.8000E+01
     -3.161  0.0000E+00  0.8000E+01
     -2.943  0.0000E+00  0.8000E+01
     -2.726  0.1370E-01  0.8003E+01
     -2.508  0.2104E-09  0.8125E+01
     -2.290  0.3853E+01  0.8964E+01
     -2.073  0.1723E+01  0.9344E+01
     -1.855  0.1747E+01  0.9724E+01
     -1.637  0.8615E+00  0.1016E+02
     -1.420  0.6028E+01  0.1147E+02
     -1.202  0.8615E+00  0.1166E+02
     -0.985  0.4881E+01  0.1272E+02
     -0.767  0.2292E+01  0.1391E+02
     -0.549  0.4307E+00  0.1400E+02
     -0.332  0.0000E+00  0.1400E+02
     -0.114  0.0000E+00  0.1400E+02
      0.104  0.0000E+00  0.1400E+02
      0.321  0.0000E+00  0.1400E+02
      0.539  0.0000E+00  0.1400E+02
      0.757  0.0000E+00  0.1400E+02
      0.974  0.0000E+00  0.1400E+02
      1.192  0.0000E+00  0.1400E+02
      1.410  0.0000E+00  0.1400E+02
      1.627  0.0000E+00  0.1400E+02
      1.845  0.0000E+00  0.1400E+02
      2.063  0.0000E+00  0.1400E+02
      2.280  0.0000E+00  0.1400E+02
      2.498  0.0000E+00  0.1400E+02
      2.715  0.0000E+00  0.1400E+02
      2.933  0.0000E+00  0.1400E+02
      3.151  0.0000E+00  0.1400E+02
      3.368  0.0000E+00  0.1400E+02
      3.586  0.0000E+00  0.1400E+02
      3.804  0.0000E+00  0.1400E+02
      4.021  0.0000E+00  0.1400E+02
      4.239  0.2539E-13  0.1400E+02
      4.457  0.1436E+00  0.1403E+02
      4.674  0.0000E+00  0.1403E+02
      4.892  0.0000E+00  0.1403E+02
      5.110  0.0000E+00  0.1403E+02
      5.327  0.0000E+00  0.1403E+02
      5.545  0.0000E+00  0.1403E+02
      5.763  0.3405E-06  0.1403E+02
      5.980  0.1149E+01  0.1428E+02
      6.198  0.0000E+00  0.1428E+02
      6.415  0.8697E+00  0.1447E+02
      6.633  0.0000E+00  0.1459E+02
      6.851  0.4047E+00  0.1468E+02
      7.068  0.0000E+00  0.1469E+02
      7.286  0.4307E+00  0.1478E+02
      7.504  0.5162E+01  0.1590E+02
      7.721  0.0000E+00  0.1591E+02
      7.939  0.0000E+00  0.1591E+02
      8.157  0.1572E+00  0.1594E+02
      8.374  0.8615E+00  0.1628E+02
      8.592  0.3412E+01  0.1702E+02
      8.810  0.3643E-10  0.1703E+02
      9.027  0.3446E+01  0.1778E+02
      9.245  0.7222E+00  0.1794E+02
      9.463  0.3446E+01  0.1916E+02
      9.680  0.0000E+00  0.1916E+02
      9.898  0.5331E-12  0.1916E+02
     10.115  0.5976E+00  0.1929E+02
     10.333  0.1172E+01  0.1972E+02
     10.551  0.1258E-04  0.1981E+02
     10.768  0.3159E+01  0.2059E+02
     10.986  0.0000E+00  0.2059E+02
     11.204  0.1723E+01  0.2097E+02
     11.421  0.5739E-15  0.2097E+02
     11.639  0.3446E+01  0.2172E+02
     11.857  0.1723E+01  0.2209E+02
     12.074  0.0000E+00  0.2209E+02
     12.292  0.0000E+00  0.2209E+02
     12.510  0.1403E+01  0.2240E+02
     12.727  0.2872E+00  0.2303E+02
     12.945  0.0000E+00  0.2303E+02
     13.163  0.0000E+00  0.2303E+02
     13.380  0.2936E+01  0.2367E+02
     13.598  0.8615E+00  0.2397E+02
     13.815  0.0000E+00  0.2397E+02
     14.033  0.1407E+00  0.2400E+02
     14.251  0.8621E+00  0.2419E+02
     14.468  0.0000E+00  0.2431E+02
     14.686  0.2442E+00  0.2437E+02
     14.904  0.3604E-04  0.2441E+02
     15.121  0.3295E+01  0.2537E+02
     15.339  0.0000E+00  0.2541E+02
     15.557  0.1226E-01  0.2541E+02
     15.774  0.4307E+01  0.2659E+02
     15.992  0.1256E-06  0.2659E+02
     16.210  0.1723E+01  0.2697E+02
     16.427  0.1934E-02  0.2697E+02
     16.645  0.6318E+01  0.2853E+02
     16.862  0.3444E+01  0.2928E+02
     17.080  0.5743E+00  0.2941E+02
     17.298  0.0000E+00  0.2941E+02
     17.515  0.0000E+00  0.2941E+02
     17.733  0.1704E+01  0.2978E+02
     17.951  0.3446E+01  0.3053E+02
     18.168  0.3446E+01  0.3128E+02
     18.386  0.2010E+01  0.3172E+02
     18.604  0.0000E+00  0.3172E+02
     18.821  0.0000E+00  0.3172E+02
     19.039  0.2174E-03  0.3172E+02
     19.257  0.3159E+01  0.3259E+02
     19.474  0.0000E+00  0.3259E+02
     19.692  0.6353E-07  0.3259E+02
     19.910  0.3446E+01  0.3334E+02
     20.127  0.1723E+01  0.3372E+02
     20.345  0.0000E+00  0.3372E+02
     20.562  0.1146E+01  0.3397E+02
     20.780  0.1557E+01  0.3431E+02
     20.998  0.1409E+01  0.3465E+02
     21.215  0.3446E+01  0.3566E+02
     21.433  0.7652E-15  0.3566E+02
     21.651  0.4020E+01  0.3653E+02
     21.868  0.4307E+00  0.3662E+02
     22.086  0.5625E-01  0.3664E+02
     22.304  0.0000E+00  0.3681E+02
     22.521  0.3432E+01  0.3756E+02
     22.739  0.1723E+01  0.3794E+02
     22.957  0.8615E+00  0.3812E+02
     23.174  0.2679E-11  0.3813E+02
     23.392  0.2927E+01  0.3876E+02
     23.610  0.3252E+00  0.3885E+02
     23.827  0.5783E+00  0.3928E+02
     24.045  0.6655E-04  0.3934E+02
     24.262  0.4155E+01  0.4025E+02
     24.480  0.8272E-01  0.4033E+02
     24.698  0.2122E+01  0.4087E+02
     24.915  0.9173E-01  0.4202E+02
     25.133  0.8202E+00  0.4243E+02
     25.351  0.0000E+00  0.4244E+02
     25.568  0.3536E-11  0.4244E+02
     25.786  0.5042E+01  0.4353E+02
     26.004  0.0000E+00  0.4356E+02
     26.221  0.4307E+00  0.4366E+02
     26.439  0.1150E+01  0.4391E+02
     26.657  0.8993E+00  0.4485E+02
     26.874  0.4001E-12  0.4497E+02
     27.092  0.6259E+00  0.4510E+02
     27.310  0.3159E+01  0.4584E+02
     27.527  0.0000E+00  0.4584E+02
     27.745  0.0000E+00  0.4584E+02
     27.962  0.0000E+00  0.4584E+02
     28.180  0.0000E+00  0.4584E+02
     28.398  0.2308E-05  0.4584E+02
     28.615  0.4710E+01  0.4687E+02
     28.833  0.8615E+00  0.4716E+02
     29.051  0.0000E+00  0.4716E+02
     29.268  0.5036E-03  0.4716E+02
     29.486  0.3236E+01  0.4833E+02
     29.704  0.4014E+01  0.4925E+02
     29.921  0.0000E+00  0.4950E+02
     30.139  0.1697E+01  0.4987E+02
     30.357  0.2030E+01  0.5032E+02
     30.574  0.1141E+01  0.5106E+02
     30.792  0.8502E-03  0.5106E+02
     31.010  0.4664E+01  0.5227E+02
     31.227  0.8615E+00  0.5262E+02
     31.445  0.1723E+01  0.5300E+02
     31.662  0.1724E+01  0.5338E+02
     31.880  0.5289E+01  0.5471E+02
     32.098  0.2535E-06  0.5488E+02
     32.315  0.2071E+01  0.5533E+02
     32.533  0.1723E+01  0.5575E+02
     32.751  0.0000E+00  0.5584E+02
     32.968  0.1259E+00  0.5587E+02
     33.186  0.3159E+01  0.5691E+02
     33.404  0.5743E+01  0.5816E+02
     33.621  0.9838E-07  0.5816E+02
     33.839  0.4307E+01  0.5909E+02
     34.057  0.0000E+00  0.5909E+02
     34.274  0.0000E+00  0.5909E+02
     34.492  0.1545E-07  0.5909E+02
     34.710  0.2872E+01  0.5972E+02
     34.927  0.8643E-03  0.5972E+02
     35.145  0.2010E+01  0.6091E+02
     35.362  0.0000E+00  0.6091E+02
     35.580  0.0000E+00  0.6091E+02
     35.798  0.2335E+00  0.6096E+02
     36.015  0.0000E+00  0.6128E+02
     36.233  0.2631E+01  0.6185E+02
     36.451  0.8615E+00  0.6216E+02
     36.668  0.0000E+00  0.6216E+02
     36.886  0.9148E-01  0.6218E+02
     37.104  0.1542E+01  0.6252E+02
     37.321  0.4955E-12  0.6313E+02
     37.539  0.2442E+01  0.6366E+02
     37.757  0.0000E+00  0.6375E+02
     37.974  0.1257E-07  0.6375E+02
     38.192  0.1149E+01  0.6400E+02
     38.410  0.0000E+00  0.6400E+02
     38.627  0.0000E+00  0.6400E+02
     38.845  0.0000E+00  0.6400E+02
     39.062  0.0000E+00  0.6400E+02
     39.280  0.0000E+00  0.6400E+02
     39.498  0.0000E+00  0.6400E+02
     39.715  0.0000E+00  0.6400E+02
     39.933  0.0000E+00  0.6400E+02
     40.151  0.0000E+00  0.6400E+02
     40.368  0.0000E+00  0.6400E+02
     40.586  0.0000E+00  0.6400E+02
     40.804  0.0000E+00  0.6400E+02
     41.021  0.0000E+00  0.6400E+02
