    2    2    1    1
  0.2197554E+02  0.3961213E-09  0.3961213E-09  0.3961213E-09  0.5000000E-15
  1.000000000000000E-004
  CAR 
 unknown system                          
     14      8     32
 
  0.0000000E+00  0.0000000E+00  0.0000000E+00  0.1562500E-01
      1        -21.270671   1.000000
      2        -21.270671   1.000000
      3        -21.270671   1.000000
      4        -13.354732   1.000000
      5         -0.662160   1.000000
      6         -0.662160   1.000000
      7         -0.662159   1.000000
      8          4.341833   0.000000
      9         10.355676   0.000000
     10         10.355677   0.000000
     11         10.355677   0.000000
     12         12.607219   0.000000
     13         12.607219   0.000000
     14         14.003986   0.000000
     15         16.507088   0.000000
     16         16.507089   0.000000
     17         16.507104   0.000000
     18         23.395900   0.000000
     19         26.128366   0.000000
     20         26.128367   0.000000
     21         26.128371   0.000000
     22         26.973870   0.000000
     23         26.973870   0.000000
     24         26.973875   0.000000
     25         30.205060   0.000000
     26         30.205060   0.000000
     27         33.745128   0.000000
     28         33.745160   0.000000
     29         33.745160   0.000000
     30         36.314526   0.000000
     31         36.314527   0.000000
     32         36.881031   0.000000
 
  0.2500000E+00 -0.1943072E-16 -0.1462407E-16  0.1250000E+00
      1        -21.287911   1.000000
      2        -21.272009   1.000000
      3        -21.272008   1.000000
      4        -13.176477   1.000000
      5         -1.826292   1.000000
      6         -0.807177   1.000000
      7         -0.807176   1.000000
      8          5.833134   0.000000
      9          9.240219   0.000000
     10         10.664221   0.000000
     11         10.664236   0.000000
     12         12.547488   0.000000
     13         12.547498   0.000000
     14         14.960276   0.000000
     15         18.239562   0.000000
     16         19.186197   0.000000
     17         19.186206   0.000000
     18         20.522811   0.000000
     19         21.547170   0.000000
     20         21.547180   0.000000
     21         26.299958   0.000000
     22         27.197627   0.000000
     23         27.197642   0.000000
     24         30.390300   0.000000
     25         30.390319   0.000000
     26         30.539156   0.000000
     27         33.043165   0.000000
     28         33.043168   0.000000
     29         34.570515   0.000000
     30         34.986531   0.000000
     31         37.422838   0.000000
     32         38.053369   0.000000
 
  0.5000000E+00 -0.3886144E-16 -0.2924815E-16  0.6250000E-01
      1        -21.304818   1.000000
      2        -21.273108   1.000000
      3        -21.273107   1.000000
      4        -12.986762   1.000000
      5         -2.697706   1.000000
      6         -0.943091   1.000000
      7         -0.943091   1.000000
      8          6.446073   0.000000
      9          9.997432   0.000000
     10         10.249284   0.000000
     11         10.249300   0.000000
     12         14.294528   0.000000
     13         15.589166   0.000000
     14         15.589170   0.000000
     15         16.542532   0.000000
     16         16.542557   0.000000
     17         17.004293   0.000000
     18         23.272046   0.000000
     19         23.272053   0.000000
     20         24.163410   0.000000
     21         24.935303   0.000000
     22         24.935312   0.000000
     23         26.677910   0.000000
     24         30.939301   0.000000
     25         30.939339   0.000000
     26         31.750129   0.000000
     27         31.750135   0.000000
     28         31.927536   0.000000
     29         32.311610   0.000000
     30         33.283218   0.000000
     31         36.233779   0.000000
     32         36.390301   0.000000
 
  0.2500000E+00  0.2500000E+00 -0.6299219E-16  0.9375000E-01
      1        -21.285011   1.000000
      2        -21.275465   1.000000
      3        -21.275464   1.000000
      4        -13.134069   1.000000
      5         -1.794168   1.000000
      6         -0.997979   1.000000
      7         -0.997978   1.000000
      8          6.369902   0.000000
      9          8.280970   0.000000
     10         10.142682   0.000000
     11         11.747351   0.000000
     12         11.747352   0.000000
     13         13.442238   0.000000
     14         18.104778   0.000000
     15         18.104788   0.000000
     16         18.324482   0.000000
     17         19.180053   0.000000
     18         20.761717   0.000000
     19         20.761719   0.000000
     20         21.038865   0.000000
     21         25.109513   0.000000
     22         26.594451   0.000000
     23         27.160947   0.000000
     24         30.108367   0.000000
     25         30.108381   0.000000
     26         31.150956   0.000000
     27         33.050405   0.000000
     28         33.352615   0.000000
     29         33.352621   0.000000
     30         35.061093   0.000000
     31         36.985982   0.000000
     32         37.425042   0.000000
 
  0.5000000E+00  0.2500000E+00 -0.4665836E-16  0.3750000E+00
      1        -21.295573   1.000000
      2        -21.280594   1.000000
      3        -21.276584   1.000000
      4        -12.963015   1.000000
      5         -2.325195   1.000000
      6         -1.476208   1.000000
      7         -1.124771   1.000000
      8          7.400384   0.000000
      9          8.558932   0.000000
     10          9.400788   0.000000
     11         11.536865   0.000000
     12         13.365370   0.000000
     13         15.671420   0.000000
     14         16.500119   0.000000
     15         16.817032   0.000000
     16         17.856907   0.000000
     17         19.769759   0.000000
     18         21.093457   0.000000
     19         22.483946   0.000000
     20         24.103040   0.000000
     21         24.713936   0.000000
     22         25.760708   0.000000
     23         26.486435   0.000000
     24         28.466131   0.000000
     25         29.464125   0.000000
     26         29.696788   0.000000
     27         30.895911   0.000000
     28         31.766239   0.000000
     29         33.322806   0.000000
     30         33.744530   0.000000
     31         34.976453   0.000000
     32         37.115670   0.000000
 
 -0.2500000E+00  0.2500000E+00 -0.7773313E-16  0.1875000E+00
      1        -21.294238   1.000000
      2        -21.281192   1.000000
      3        -21.273126   1.000000
      4        -13.007894   1.000000
      5         -2.201866   1.000000
      6         -1.502708   1.000000
      7         -0.945119   1.000000
      8          7.465936   0.000000
      9          8.902849   0.000000
     10          9.301191   0.000000
     11         11.150169   0.000000
     12         12.497183   0.000000
     13         15.102160   0.000000
     14         16.066266   0.000000
     15         17.700740   0.000000
     16         18.082649   0.000000
     17         19.984051   0.000000
     18         20.985021   0.000000
     19         22.626524   0.000000
     20         23.289511   0.000000
     21         23.622023   0.000000
     22         24.727570   0.000000
     23         28.606602   0.000000
     24         29.324475   0.000000
     25         29.679363   0.000000
     26         31.380033   0.000000
     27         31.578286   0.000000
     28         32.170272   0.000000
     29         32.988903   0.000000
     30         34.600765   0.000000
     31         35.813323   0.000000
     32         36.137744   0.000000
 
  0.5000000E+00  0.5000000E+00 -0.1259844E-15  0.4687500E-01
      1        -21.294017   1.000000
      2        -21.280048   1.000000
      3        -21.280048   1.000000
      4        -12.937490   1.000000
      5         -2.421606   1.000000
      6         -1.292094   1.000000
      7         -1.292093   1.000000
      8          6.828802   0.000000
      9          7.208302   0.000000
     10         10.607581   0.000000
     11         14.133492   0.000000
     12         14.133498   0.000000
     13         14.683647   0.000000
     14         16.467390   0.000000
     15         16.467390   0.000000
     16         16.570504   0.000000
     17         21.735236   0.000000
     18         22.822675   0.000000
     19         22.822681   0.000000
     20         24.269369   0.000000
     21         24.492439   0.000000
     22         24.562946   0.000000
     23         25.665018   0.000000
     24         25.665029   0.000000
     25         27.093560   0.000000
     26         29.311959   0.000000
     27         31.867934   0.000000
     28         31.867948   0.000000
     29         32.586995   0.000000
     30         33.692619   0.000000
     31         37.429800   0.000000
     32         37.578774   0.000000
 
 -0.2500000E+00  0.5000000E+00  0.2500000E+00  0.9375000E-01
      1        -21.286885   1.000000
      2        -21.286884   1.000000
      3        -21.282499   1.000000
      4        -12.918194   1.000000
      5         -1.922202   1.000000
      6         -1.922198   1.000000
      7         -1.460332   1.000000
      8          8.169443   0.000000
      9          8.918529   0.000000
     10          8.918531   0.000000
     11         10.659498   0.000000
     12         15.067484   0.000000
     13         15.067512   0.000000
     14         15.713269   0.000000
     15         16.540719   0.000000
     16         19.088153   0.000000
     17         21.598675   0.000000
     18         21.598678   0.000000
     19         22.107396   0.000000
     20         23.820919   0.000000
     21         24.689908   0.000000
     22         24.689915   0.000000
     23         25.700372   0.000000
     24         28.762751   0.000000
     25         30.252137   0.000000
     26         30.252148   0.000000
     27         30.835642   0.000000
     28         31.029336   0.000000
     29         31.706241   0.000000
     30         32.452516   0.000000
     31         32.452526   0.000000
     32         36.224174   0.000000
