       N       E                     dE             d eps       ncg     rms          rms(c)
DAV:   1     0.127150624139E+02    0.12715E+02   -0.68382E+03   512   0.319E+02
DAV:   2    -0.710655152137E+01   -0.19822E+02   -0.19822E+02   768   0.443E+01
DAV:   3    -0.715639582618E+01   -0.49844E-01   -0.49844E-01   512   0.286E+00
DAV:   4    -0.715644695687E+01   -0.51131E-04   -0.51131E-04   992   0.951E-02
DAV:   5    -0.715644695710E+01   -0.22374E-09   -0.17633E-09   512   0.173E-04    0.188E+00
DAV:   6    -0.700216416868E+01    0.15428E+00   -0.43974E-01   608   0.151E+00    0.142E+00
DAV:   7    -0.699120234701E+01    0.10962E-01   -0.84699E-02   832   0.696E-01    0.882E-01
DAV:   8    -0.699461360068E+01   -0.34113E-02   -0.68314E-03   704   0.303E-01    0.145E-01
DAV:   9    -0.699467478923E+01   -0.61189E-04   -0.62637E-05   704   0.212E-02    0.729E-02
DAV:  10    -0.699477764518E+01   -0.10286E-03   -0.11694E-04   704   0.301E-02    0.555E-03
DAV:  11    -0.699477774996E+01   -0.10478E-06   -0.21012E-07   672   0.170E-03    0.194E-03
DAV:  12    -0.699477809450E+01   -0.34454E-06   -0.28118E-07   736   0.126E-03    0.667E-04
DAV:  13    -0.699477810304E+01   -0.85349E-08   -0.86196E-10   768   0.124E-04
   1 F= -.69947781E+01 E0= -.69947781E+01  d E =-.210306E-33
 Linear response reoptimize wavefunctions
DAV:   1    -0.699477809474E+01    0.82955E-08   -0.11017E-10   608   0.272E-05
DAV:   2    -0.699477809474E+01    0.79581E-12    0.13978E-11   512   0.262E-06
 Linear response G [H, r] |phi>, progress :
  Direction:   1
       N       E                     dE             d eps       ncg     rms
RMM:   1    -0.449750418122E+02   -0.44975E+02   -0.24214E+02  1021   0.461E+01
RMM:   2    -0.450458353316E+02   -0.70794E-01   -0.37821E+00   992   0.672E+00
RMM:   3    -0.450842045065E+02   -0.38369E-01   -0.67610E-02  1023   0.954E-01
RMM:   4    -0.450849887003E+02   -0.78419E-03   -0.46419E-03  1070   0.197E-01
RMM:   5    -0.450850885555E+02   -0.99855E-04   -0.23178E-04  1073   0.365E-02
RMM:   6    -0.450850908432E+02   -0.22876E-05   -0.78409E-06  1110   0.842E-03
RMM:   7    -0.450850913410E+02   -0.49785E-06   -0.59940E-07  1135   0.179E-03
RMM:   8    -0.450850913527E+02   -0.11710E-07   -0.80703E-08  1142   0.439E-04
RMM:   9    -0.450850913611E+02   -0.83442E-08    0.82277E-11  1044   0.110E-04
 Linear response G [H, r] |phi>, progress :
  Direction:   2
       N       E                     dE             d eps       ncg     rms
RMM:   1    -0.457612611199E+02   -0.45761E+02   -0.24932E+02  1021   0.464E+01
RMM:   2    -0.450392095816E+02    0.72205E+00   -0.43535E+00   979   0.691E+00
RMM:   3    -0.450878766191E+02   -0.48667E-01   -0.73661E-02  1025   0.984E-01
RMM:   4    -0.450887753893E+02   -0.89877E-03   -0.45978E-03  1065   0.193E-01
RMM:   5    -0.450888762337E+02   -0.10084E-03   -0.23713E-04  1072   0.362E-02
RMM:   6    -0.450888784168E+02   -0.21830E-05   -0.78585E-06  1101   0.827E-03
RMM:   7    -0.450888789037E+02   -0.48690E-06   -0.60179E-07  1120   0.175E-03
RMM:   8    -0.450888789159E+02   -0.12220E-07   -0.47323E-08  1135   0.428E-04
RMM:   9    -0.450888788968E+02    0.19117E-07    0.51417E-09  1018   0.102E-04
RMM:  10    -0.450888788970E+02   -0.22372E-09    0.13103E-08   940   0.359E-05
 Linear response G [H, r] |phi>, progress :
  Direction:   3
       N       E                     dE             d eps       ncg     rms
RMM:   1    -0.428589607994E+02   -0.42859E+02   -0.23024E+02  1013   0.443E+01
RMM:   2    -0.414376762635E+02    0.14213E+01   -0.51921E+00   955   0.702E+00
RMM:   3    -0.415028035946E+02   -0.65127E-01   -0.10753E-01  1015   0.103E+00
RMM:   4    -0.415032580288E+02   -0.45443E-03   -0.10059E-02  1049   0.215E-01
RMM:   5    -0.415032875179E+02   -0.29489E-04   -0.22455E-04  1075   0.363E-02
RMM:   6    -0.415032892317E+02   -0.17138E-05   -0.84948E-06  1074   0.781E-03
RMM:   7    -0.415032895515E+02   -0.31979E-06   -0.10903E-06  1114   0.214E-03
RMM:   8    -0.415032895582E+02   -0.67404E-08   -0.13797E-07  1109   0.421E-04
RMM:   9    -0.415032895292E+02    0.29060E-07   -0.16251E-07  1025   0.114E-04
RMM:  10    -0.415032894845E+02    0.44651E-07   -0.10373E-06   926   0.390E-05
RMM:  11    -0.415032894850E+02   -0.48782E-09   -0.15113E-06   861   0.223E-05
RMM:  12    -0.415032894846E+02    0.41993E-09   -0.12560E-06   829   0.194E-05
RMM:  13    -0.415032894852E+02   -0.64475E-09   -0.58157E-07   802   0.190E-05
RMM:  14    -0.415032894855E+02   -0.26006E-09    0.14387E-06   795   0.190E-05
 Linear response to external field (no local field effect), progress :
  Direction:   1
       N       E                     dE             d eps       ncg     rms          rms(c)
RMM:   1    -0.221391436247E+00   -0.22139E+00   -0.51443E-01   808   0.175E+00
RMM:   2    -0.249168449575E+00   -0.27777E-01   -0.11217E-02  1003   0.279E-01
RMM:   3    -0.249205681279E+00   -0.37232E-04   -0.22641E-04  1054   0.426E-02
RMM:   4    -0.249205330769E+00    0.35051E-06   -0.33438E-06  1082   0.512E-03
RMM:   5    -0.249205328871E+00    0.18982E-08   -0.10266E-07  1092   0.885E-04
RMM:   6    -0.249205328903E+00   -0.31752E-10   -0.24670E-09  1078   0.148E-04
 Linear response to external field (no local field effect), progress :
  Direction:   2
       N       E                     dE             d eps       ncg     rms          rms(c)
RMM:   1    -0.221318882438E+00   -0.22132E+00   -0.50826E-01   798   0.178E+00
RMM:   2    -0.248461861166E+00   -0.27143E-01   -0.11822E-02   999   0.287E-01
RMM:   3    -0.248490227417E+00   -0.28366E-04   -0.20964E-04  1043   0.405E-02
RMM:   4    -0.248489994829E+00    0.23259E-06   -0.28554E-06  1089   0.487E-03
RMM:   5    -0.248489991925E+00    0.29040E-08   -0.96622E-08  1089   0.840E-04
 Linear response to external field (no local field effect), progress :
  Direction:   3
       N       E                     dE             d eps       ncg     rms          rms(c)
RMM:   1    -0.159120942478E+00   -0.15912E+00   -0.31711E-01   809   0.156E+00
RMM:   2    -0.180845564440E+00   -0.21725E-01   -0.99089E-03   991   0.271E-01
RMM:   3    -0.180908927729E+00   -0.63363E-04   -0.18248E-04  1039   0.359E-02
RMM:   4    -0.180908795969E+00    0.13176E-06   -0.31166E-06  1056   0.485E-03
RMM:   5    -0.180908791903E+00    0.40654E-08   -0.84577E-08  1065   0.786E-04
 Linear response to external field, progress :
  Direction:   1
       N       E                     dE             d eps       ncg     rms          rms(c)
RMM:   1    -0.199556352864E+00   -0.19956E+00   -0.43606E-01  1317   0.168E+00
RMM:   2    -0.226152413447E+00   -0.26596E-01   -0.11335E-02  1613   0.282E-01    0.108E+00
RMM:   3    -0.201672242250E+00    0.24480E-01   -0.37412E-03  1581   0.146E-01    0.563E-01
RMM:   4    -0.207636600185E+00   -0.59644E-02   -0.21240E-03  1620   0.123E-01    0.183E-01
RMM:   5    -0.216299714568E+00   -0.86631E-02   -0.43756E-04  1604   0.647E-02    0.517E-02
RMM:   6    -0.217374775411E+00   -0.10751E-02   -0.17345E-05  1669   0.128E-02    0.136E-02
RMM:   7    -0.217808873623E+00   -0.43410E-03   -0.17068E-06  1678   0.431E-03    0.992E-04
RMM:   8    -0.217805142087E+00    0.37315E-05   -0.58742E-08  1791   0.766E-04    0.101E-03
RMM:   9    -0.217806859219E+00   -0.17171E-05   -0.32645E-09  1762   0.181E-04    0.205E-04
RMM:  10    -0.217806138498E+00    0.72072E-06    0.35390E-11  1764   0.416E-05    0.962E-05
RMM:  11    -0.217805719384E+00    0.41911E-06    0.42677E-12  1535   0.136E-05    0.163E-05
RMM:  12    -0.217805715970E+00    0.34145E-08   -0.61484E-13  1115   0.921E-06    0.507E-06
 Linear response to external field, progress :
  Direction:   2
       N       E                     dE             d eps       ncg     rms          rms(c)
RMM:   1    -0.201281803490E+00   -0.20128E+00   -0.45332E-01  1307   0.170E+00
RMM:   2    -0.226161321178E+00   -0.24880E-01   -0.10783E-02  1610   0.277E-01    0.108E+00
RMM:   3    -0.201679113228E+00    0.24482E-01   -0.37767E-03  1580   0.146E-01    0.564E-01
RMM:   4    -0.207639636840E+00   -0.59605E-02   -0.21594E-03  1624   0.124E-01    0.184E-01
RMM:   5    -0.216296160860E+00   -0.86565E-02   -0.43851E-04  1602   0.646E-02    0.522E-02
RMM:   6    -0.217369537683E+00   -0.10734E-02   -0.17154E-05  1664   0.126E-02    0.135E-02
RMM:   7    -0.217809922965E+00   -0.44039E-03   -0.17223E-06  1682   0.433E-03    0.102E-03
RMM:   8    -0.217804564701E+00    0.53583E-05   -0.61690E-08  1788   0.779E-04    0.102E-03
RMM:   9    -0.217806553152E+00   -0.19885E-05   -0.32806E-09  1756   0.187E-04    0.227E-04
RMM:  10    -0.217806073357E+00    0.47980E-06   -0.15293E-10  1774   0.424E-05    0.104E-04
RMM:  11    -0.217805663044E+00    0.41031E-06   -0.64174E-11  1547   0.137E-05    0.208E-05
RMM:  12    -0.217805654141E+00    0.89032E-08    0.31161E-14  1115   0.925E-06    0.794E-06
 Linear response to external field, progress :
  Direction:   3
       N       E                     dE             d eps       ncg     rms          rms(c)
RMM:   1    -0.200993096564E+00   -0.20099E+00   -0.45043E-01  1307   0.171E+00
RMM:   2    -0.226162190745E+00   -0.25169E-01   -0.10830E-02  1622   0.279E-01    0.108E+00
RMM:   3    -0.201679443754E+00    0.24483E-01   -0.38005E-03  1582   0.147E-01    0.564E-01
RMM:   4    -0.207639424450E+00   -0.59600E-02   -0.21746E-03  1634   0.124E-01    0.182E-01
RMM:   5    -0.216224711682E+00   -0.85853E-02   -0.42483E-04  1593   0.638E-02    0.500E-02
RMM:   6    -0.217388769226E+00   -0.11641E-02   -0.17558E-05  1676   0.128E-02    0.164E-02
RMM:   7    -0.217806255993E+00   -0.41749E-03   -0.17188E-06  1670   0.435E-03    0.119E-03
RMM:   8    -0.217806018347E+00    0.23765E-06   -0.62543E-08  1796   0.809E-04    0.102E-03
RMM:   9    -0.217806895768E+00   -0.87742E-06   -0.37065E-09  1753   0.188E-04    0.187E-04
RMM:  10    -0.217806060877E+00    0.83489E-06   -0.17363E-10  1784   0.478E-05    0.890E-05
RMM:  11    -0.217805640048E+00    0.42083E-06    0.54903E-13  1572   0.133E-05    0.159E-05
RMM:  12    -0.217805648560E+00   -0.85121E-08   -0.83271E-15  1117   0.911E-06    0.302E-06
