<?xml version="1.0" encoding="ISO-8859-1"?>
<modeling>
 <generator>
  <i name="program" type="string">vasp </i>
  <i name="version" type="string">6.3.2  </i>
  <i name="subversion" type="string">27Jun22 (build Oct 14 2022 12:38:20) complex                          parallel </i>
  <i name="platform" type="string">LinuxIFC </i>
  <i name="date" type="string">2022 11 28 </i>
  <i name="time" type="string">01:29:36 </i>
 </generator>
 <incar>
  <i type="string" name="PREC">Accurate</i>
  <i type="int" name="IALGO">    38</i>
  <i type="logical" name="ADDGRID"> T  </i>
  <i type="int" name="NELMIN">     5</i>
  <i type="int" name="IBRION">    -1</i>
  <i name="EDIFF">      0.00000001</i>
  <i name="ENCUT">    341.21360000</i>
  <i type="logical" name="LREAL"> F  </i>
  <i type="int" name="ISMEAR">     0</i>
  <i name="SIGMA">      0.02000000</i>
  <i type="logical" name="LWAVE"> F  </i>
  <i type="logical" name="LCHARG"> F  </i>
  <i type="string" name="GGA">PS</i>
  <i type="logical" name="LEPSILON"> T  </i>
 </incar>
 <primitive_cell>
  <structure name="primitive_cell" >
   <crystal>
    <varray name="basis" >
     <v>       0.00000000       2.80100059       2.80100059 </v>
     <v>       2.80100059       0.00000000       2.80100059 </v>
     <v>       2.80100059       2.80100059       0.00000000 </v>
    </varray>
    <i name="volume">     43.95108458 </i>
    <varray name="rec_basis" >
     <v>      -0.17850764       0.17850764       0.17850764 </v>
     <v>       0.17850764      -0.17850764       0.17850764 </v>
     <v>       0.17850764       0.17850764      -0.17850764 </v>
    </varray>
   </crystal>
   <varray name="positions" >
    <v>       0.00000000       0.00000000       0.00000000 </v>
    <v>       0.50000000       0.50000000       0.50000000 </v>
   </varray>
  </structure>
  <varray name="primitive_index" >
   <v type="int" >        1 </v>
   <v type="int" >        2 </v>
  </varray>
 </primitive_cell>
 <kpoints>
  <generation param="Gamma">
   <v type="int" name="divisions">       4        4        4 </v>
   <v name="usershift">      0.00000000       0.00000000       0.00000000 </v>
   <v name="genvec1">      0.25000000      -0.00000000       0.00000000 </v>
   <v name="genvec2">     -0.00000000       0.25000000      -0.00000000 </v>
   <v name="genvec3">      0.00000000       0.00000000       0.25000000 </v>
   <v name="shift">      0.00000000       0.00000000       0.00000000 </v>
  </generation>
  <varray name="kpointlist" >
   <v>       0.00000000       0.00000000       0.00000000 </v>
   <v>       0.25000000      -0.00000000      -0.00000000 </v>
   <v>       0.50000000      -0.00000000      -0.00000000 </v>
   <v>       0.25000000       0.25000000      -0.00000000 </v>
   <v>       0.50000000       0.25000000      -0.00000000 </v>
   <v>      -0.25000000       0.25000000      -0.00000000 </v>
   <v>       0.50000000       0.50000000      -0.00000000 </v>
   <v>      -0.25000000       0.50000000       0.25000000 </v>
  </varray>
  <varray name="weights" >
   <v>       0.01562500 </v>
   <v>       0.12500000 </v>
   <v>       0.06250000 </v>
   <v>       0.09375000 </v>
   <v>       0.37500000 </v>
   <v>       0.18750000 </v>
   <v>       0.04687500 </v>
   <v>       0.09375000 </v>
  </varray>
 </kpoints>
 <parameters>
  <separator name="general" >
   <i type="string" name="SYSTEM">unknown system</i>
   <i type="logical" name="LCOMPAT"> F  </i>
  </separator>
  <separator name="electronic" >
   <i type="string" name="PREC">accura</i>
   <i name="ENMAX">    341.21360000</i>
   <i name="ENAUG">    368.05600000</i>
   <i name="EDIFF">      0.00000001</i>
   <i type="int" name="IALGO">    38</i>
   <i type="int" name="IWAVPR">    10</i>
   <i type="int" name="NBANDS">    32</i>
   <i type="int" name="NBANDSLOW">    -1</i>
   <i type="int" name="NBANDSHIGH">    -1</i>
   <i name="NELECT">     14.00000000</i>
   <i type="int" name="TURBO">     0</i>
   <i type="int" name="IRESTART">     0</i>
   <i type="int" name="NREBOOT">     0</i>
   <i type="int" name="NMIN">     0</i>
   <i name="EREF">      0.00000000</i>
   <separator name="electronic smearing" >
    <i type="int" name="ISMEAR">     0</i>
    <i name="SIGMA">      0.02000000</i>
    <i name="KSPACING">      0.50000000</i>
    <i type="logical" name="KGAMMA"> T  </i>
    <i type="logical" name="KBLOWUP"> T  </i>
   </separator>
   <separator name="electronic projectors" >
    <i type="logical" name="LREAL"> F  </i>
    <v name="ROPT">      0.00000000      0.00000000</v>
    <i type="int" name="LMAXPAW">  -100</i>
    <i type="int" name="LMAXMIX">     2</i>
    <i type="logical" name="NLSPLINE"> F  </i>
   </separator>
   <separator name="electronic startup" >
    <i type="int" name="ISTART">     0</i>
    <i type="int" name="ICHARG">     2</i>
    <i type="int" name="INIWAV">     1</i>
   </separator>
   <separator name="electronic spin" >
    <i type="int" name="ISPIN">     1</i>
    <i type="logical" name="LNONCOLLINEAR"> F  </i>
    <v name="MAGMOM">      1.00000000      1.00000000</v>
    <i name="NUPDOWN">     -1.00000000</i>
    <i type="logical" name="LSORBIT"> F  </i>
    <v name="SAXIS">      0.00000000      0.00000000      1.00000000</v>
    <i type="logical" name="LSPIRAL"> F  </i>
    <v name="QSPIRAL">      0.00000000      0.00000000      0.00000000</v>
    <i type="logical" name="LZEROZ"> F  </i>
   </separator>
   <separator name="electronic exchange-correlation" >
    <i type="logical" name="LASPH"> F  </i>
    <i type="logical" name="LMETAGGA"> F  </i>
   </separator>
   <separator name="electronic convergence" >
    <i type="int" name="NELM">    60</i>
    <i type="int" name="NELMDL">    -5</i>
    <i type="int" name="NELMIN">     5</i>
    <i name="ENINI">    341.21360000</i>
    <separator name="electronic convergence detail" >
     <i type="logical" name="LDIAG"> T  </i>
     <i type="logical" name="LSUBROT"> F  </i>
     <i name="WEIMIN">      0.00000000</i>
     <i name="EBREAK">      0.00000000</i>
     <i name="DEPER">      0.30000000</i>
     <i type="int" name="NRMM">     4</i>
     <i name="TIME">      0.40000000</i>
    </separator>
   </separator>
   <separator name="electronic mixer" >
    <i name="AMIX">      0.40000000</i>
    <i name="BMIX">      1.00000000</i>
    <i name="AMIN">      0.10000000</i>
    <i name="AMIX_MAG">      1.60000000</i>
    <i name="BMIX_MAG">      1.00000000</i>
    <separator name="electronic mixer details" >
     <i type="int" name="IMIX">     4</i>
     <i type="logical" name="MIXFIRST"> F  </i>
     <i type="int" name="MAXMIX">   -45</i>
     <i name="WC">    100.00000000</i>
     <i type="int" name="INIMIX">     1</i>
     <i type="int" name="MIXPRE">     1</i>
     <i type="int" name="MREMOVE">     5</i>
    </separator>
   </separator>
   <separator name="electronic dipolcorrection" >
    <i type="logical" name="LDIPOL"> F  </i>
    <i type="logical" name="LMONO"> F  </i>
    <i type="int" name="IDIPOL">     0</i>
    <i name="EPSILON">      1.00000000</i>
    <v name="DIPOL">   -100.00000000   -100.00000000   -100.00000000</v>
    <i name="EFIELD">      0.00000000</i>
   </separator>
  </separator>
  <separator name="grids" >
   <i type="int" name="NGX">    24</i>
   <i type="int" name="NGY">    24</i>
   <i type="int" name="NGZ">    24</i>
   <i type="int" name="NGXF">    48</i>
   <i type="int" name="NGYF">    48</i>
   <i type="int" name="NGZF">    48</i>
   <i type="logical" name="ADDGRID"> T  </i>
  </separator>
  <separator name="ionic" >
   <i type="int" name="NSW">     0</i>
   <i type="int" name="IBRION">    -1</i>
   <i type="int" name="MDALGO">     0</i>
   <i type="int" name="ISIF">     2</i>
   <i name="PSTRESS">      0.00000000</i>
   <i name="EDIFFG">      0.00000010</i>
   <i type="int" name="NFREE">     0</i>
   <i name="POTIM">      0.50000000</i>
   <i name="SMASS">     -3.00000000</i>
   <i name="SCALEE">      1.00000000</i>
  </separator>
  <separator name="ionic md" >
   <i name="TEBEG">      0.00010000</i>
   <i name="TEEND">      0.00010000</i>
   <i type="int" name="NBLOCK">     1</i>
   <i type="int" name="KBLOCK">     1</i>
   <i type="int" name="NPACO">   256</i>
   <i name="APACO">     10.00000000</i>
  </separator>
  <separator name="symmetry" >
   <i type="int" name="ISYM">     2</i>
   <i name="SYMPREC">      0.00001000</i>
  </separator>
  <separator name="dos" >
   <i type="int" name="LORBIT">     0</i>
   <v name="RWIGS">     -1.00000000     -1.00000000</v>
   <i type="int" name="NEDOS">   301</i>
   <i name="EMIN">     10.00000000</i>
   <i name="EMAX">    -10.00000000</i>
   <i name="EFERMI">      0.00000000</i>
  </separator>
  <separator name="writing" >
   <i type="int" name="NWRITE">     2</i>
   <i type="logical" name="LWAVE"> F  </i>
   <i type="logical" name="LDOWNSAMPLE"> F  </i>
   <i type="logical" name="LCHARG"> F  </i>
   <i type="logical" name="LPARD"> F  </i>
   <i type="logical" name="LVTOT"> F  </i>
   <i type="logical" name="LVHAR"> F  </i>
   <i type="logical" name="LELF"> F  </i>
   <i type="logical" name="LOPTICS"> F  </i>
   <v name="STM">      0.00000000      0.00000000      0.00000000      0.00000000      0.00000000      0.00000000      0.00000000</v>
  </separator>
  <separator name="performance" >
   <i type="int" name="NPAR">    32</i>
   <i type="int" name="NSIM">     4</i>
   <i type="int" name="NBLK">    -1</i>
   <i type="logical" name="LPLANE"> T  </i>
   <i type="logical" name="LSCALAPACK"> T  </i>
   <i type="logical" name="LSCAAWARE"> T  </i>
   <i type="logical" name="LSCALU"> F  </i>
   <i type="logical" name="LASYNC"> F  </i>
   <i type="logical" name="LORBITALREAL"> F  </i>
  </separator>
  <separator name="miscellaneous" >
   <i type="int" name="IDIOT">     3</i>
   <i type="int" name="PHON_NSTRUCT">    -1</i>
   <i type="logical" name="LMUSIC"> F  </i>
   <v name="POMASS">     22.99000000     35.45300000</v>
   <v name="DARWINR">      0.00000000      0.00000000</v>
   <v name="DARWINV">      1.00000000      1.00000000</v>
   <i type="logical" name="LCORR"> T  </i>
  </separator>
  <i type="logical" name="GGA_COMPAT"> T  </i>
  <i type="logical" name="LBERRY"> F  </i>
  <i type="int" name="ICORELEVEL">     0</i>
  <i type="logical" name="LDAU"> F  </i>
  <i type="int" name="I_CONSTRAINED_M">     0</i>
  <separator name="electronic exchange-correlation" >
   <i type="string" name="GGA">PS</i>
   <i type="int" name="VOSKOWN">     0</i>
   <i type="logical" name="LHFCALC"> F  </i>
   <i type="string" name="PRECFOCK"></i>
   <i type="logical" name="LSYMGRAD"> F  </i>
   <i type="logical" name="LHFONE"> F  </i>
   <i type="logical" name="LRHFCALC"> F  </i>
   <i type="logical" name="LTHOMAS"> F  </i>
   <i type="logical" name="LMODELHF"> F  </i>
   <i type="logical" name="LFOCKACE"> F  </i>
   <i name="ENCUT4O">     -1.00000000</i>
   <i type="int" name="EXXOEP">     0</i>
   <i type="int" name="FOURORBIT">     0</i>
   <i name="AEXX">      0.00000000</i>
   <i name="HFALPHA">      0.00000000</i>
   <i name="MCALPHA">      0.00000000</i>
   <i name="ALDAX">      1.00000000</i>
   <i name="AGGAX">      1.00000000</i>
   <i name="ALDAC">      1.00000000</i>
   <i name="AGGAC">      1.00000000</i>
   <i type="int" name="NKREDX">     1</i>
   <i type="int" name="NKREDY">     1</i>
   <i type="int" name="NKREDZ">     1</i>
   <i type="logical" name="SHIFTRED"> F  </i>
   <i type="logical" name="ODDONLY"> F  </i>
   <i type="logical" name="EVENONLY"> F  </i>
   <i type="int" name="LMAXFOCK">     0</i>
   <i type="int" name="NMAXFOCKAE">     0</i>
   <i type="logical" name="LFOCKAEDFT"> F  </i>
   <i name="HFSCREEN">      0.00000000</i>
   <i name="HFSCREENC">      0.00000000</i>
   <i type="int" name="NBANDSGWLOW">     0</i>
  </separator>
  <separator name="vdW DFT" >
   <i type="logical" name="LUSE_VDW"> F  </i>
   <i name="Zab_VDW">     -0.84910000</i>
   <i name="PARAM1">      0.12340000</i>
   <i name="PARAM2">      1.00000000</i>
   <i name="PARAM3">      0.00000000</i>
  </separator>
  <separator name="model GW" >
   <i type="int" name="MODEL_GW">     0</i>
   <i name="MODEL_EPS0">     13.18532537</i>
   <i name="MODEL_ALPHA">      1.00000000</i>
  </separator>
  <separator name="linear response parameters" >
   <i type="logical" name="LEPSILON"> T  </i>
   <i type="logical" name="LRPA"> F  </i>
   <i type="logical" name="LNABLA"> F  </i>
   <i type="logical" name="LVEL"> F  </i>
   <i name="CSHIFT">      0.10000000</i>
   <i name="OMEGAMAX">     -1.00000000</i>
   <i name="DEG_THRESHOLD">      0.00200000</i>
   <i name="RTIME">     -0.10000000</i>
   <i name="WPLASMAI">      0.00000000</i>
   <v name="DFIELD">      0.00000000      0.00000000      0.00000000</v>
   <v name="WPLASMA">      0.00000000      0.00000000      0.00000000      0.00000000      0.00000000      0.00000000      0.00000000      0.00000000      0.00000000</v>
  </separator>
  <separator name="orbital magnetization" >
   <i type="logical" name="NUCIND"> F  </i>
   <v name="MAGPOS">      0.00000000      0.00000000      0.00000000</v>
   <i type="logical" name="LNICSALL"> T  </i>
   <i type="logical" name="ORBITALMAG"> F  </i>
   <i type="logical" name="LMAGBLOCH"> F  </i>
   <i type="logical" name="LCHIMAG"> F  </i>
   <i type="logical" name="LGAUGE"> T  </i>
   <i type="int" name="MAGATOM">     0</i>
   <v name="MAGDIPOL">      0.00000000      0.00000000      0.00000000</v>
   <v name="AVECCONST">      0.00000000      0.00000000      0.00000000</v>
  </separator>
  <separator name="response functions" >
   <i type="logical" name="LFINITE_TEMPERATURE"> F  </i>
   <i type="logical" name="LADDER"> F  </i>
   <i type="logical" name="LRPAFORCE"> F  </i>
   <i type="logical" name="LFXC"> F  </i>
   <i type="logical" name="LHARTREE"> T  </i>
   <i type="int" name="IBSE">     0</i>
   <v type="int" name="KPOINT">    -1     0     0     0</v>
   <i type="logical" name="LTCTC"> F  </i>
   <i type="logical" name="LTCTE"> F  </i>
   <i type="logical" name="LTETE"> F  </i>
   <i type="logical" name="LTRIPLET"> F  </i>
   <i type="logical" name="LFXCEPS"> F  </i>
   <i type="logical" name="LFXHEG"> F  </i>
   <i type="int" name="NATURALO">     2</i>
   <i type="logical" name="LHOLEGF"> F  </i>
   <i type="logical" name="L2ORDER"> F  </i>
   <i type="logical" name="LDMP1"> F  </i>
   <i type="logical" name="LMP2LT"> F  </i>
   <i type="logical" name="LSMP2LT"> F  </i>
   <i type="logical" name="LGWLF"> F  </i>
   <i name="ENCUTGW">     -2.00000000</i>
   <i name="ENCUTGWSOFT">     -2.00000000</i>
   <i name="ENCUTLF">     -1.00000000</i>
   <i type="logical" name="LESF_SPLINES"> F  </i>
   <i type="int" name="LMAXMP2">    -1</i>
   <i name="SCISSOR">      0.00000000</i>
   <i type="int" name="NOMEGA">     0</i>
   <i type="int" name="NOMEGAR">     0</i>
   <i type="int" name="NBANDSGW">    -1</i>
   <i type="int" name="NBANDSO">    -1</i>
   <i type="int" name="NBANDSV">    -1</i>
   <i type="int" name="NELMGW">     1</i>
   <i type="int" name="NELMHF">     1</i>
   <i type="int" name="DIM">     3</i>
   <i type="int" name="IESPILON">     4</i>
   <i type="int" name="ANTIRES">     0</i>
   <i name="OMEGAMAX">    -30.00000000</i>
   <i name="OMEGAMIN">    -30.00000000</i>
   <i name="OMEGATL">   -200.00000000</i>
   <i type="int" name="OMEGAGRID">     0</i>
   <i name="CSHIFT">     -0.10000000</i>
   <i type="logical" name="LSELFENERGY"> F  </i>
   <i type="logical" name="LSPECTRAL"> F  </i>
   <i type="logical" name="LSPECTRALGW"> F  </i>
   <i type="logical" name="LSINGLES"> F  </i>
   <i type="logical" name="LFERMIGW"> F  </i>
   <i type="logical" name="ODDONLYGW"> F  </i>
   <i type="logical" name="EVENONLYGW"> F  </i>
   <i type="int" name="NKREDLFX">     1</i>
   <i type="int" name="NKREDLFY">     1</i>
   <i type="int" name="NKREDLFZ">     1</i>
   <i type="int" name="MAXMEM">  2800</i>
   <i type="int" name="TELESCOPE">     0</i>
   <i type="int" name="NTAUPAR">    -1</i>
   <i type="int" name="NOMEGAPAR">    -1</i>
   <i name="DAMP_NEWTON">      0.80000001</i>
   <i name="LAMBDA">      1.00000000</i>
  </separator>
  <separator name="External order field" >
   <i name="OFIELD_KAPPA">      0.00000000</i>
   <v name="OFIELD_K">      0.00000000      0.00000000      0.00000000</v>
   <i name="OFIELD_Q6_NEAR">      0.00000000</i>
   <i name="OFIELD_Q6_FAR">      0.00000000</i>
   <i name="OFIELD_A">      0.00000000</i>
  </separator>
  <separator name="optional k-points parameters" >
   <i type="int" name="KPOINTS_OPT_MODE">     1</i>
   <i type="logical" name="LKPOINTS_OPT"> F  </i>
  </separator>
 </parameters>
 <atominfo>
  <atoms>       2 </atoms>
  <types>       2 </types>
  <array name="atoms" >
   <dimension dim="1">ion</dimension>
   <field type="string">element</field>
   <field type="int">atomtype</field>
   <set>
    <rc><c>Na</c><c>   1</c></rc>
    <rc><c>Cl</c><c>   2</c></rc>
   </set>
  </array>
  <array name="atomtypes" >
   <dimension dim="1">type</dimension>
   <field type="int">atomspertype</field>
   <field type="string">element</field>
   <field>mass</field>
   <field>valence</field>
   <field type="string">pseudopotential</field>
   <set>
    <rc><c>   1</c><c>Na</c><c>     22.99000000</c><c>      7.00000000</c><c>  PAW_PBE Na_pv 19Sep2006               </c></rc>
    <rc><c>   1</c><c>Cl</c><c>     35.45300000</c><c>      7.00000000</c><c>  PAW_PBE Cl 06Sep2000                  </c></rc>
   </set>
  </array>
 </atominfo>
 <structure name="initialpos" >
  <crystal>
   <varray name="basis" >
    <v>       0.00000000       2.80100059       2.80100059 </v>
    <v>       2.80100059       0.00000000       2.80100059 </v>
    <v>       2.80100059       2.80100059       0.00000000 </v>
   </varray>
   <i name="volume">     43.95108458 </i>
   <varray name="rec_basis" >
    <v>      -0.17850764       0.17850764       0.17850764 </v>
    <v>       0.17850764      -0.17850764       0.17850764 </v>
    <v>       0.17850764       0.17850764      -0.17850764 </v>
   </varray>
  </crystal>
  <varray name="positions" >
   <v>       0.00000000       0.00000000       0.00000000 </v>
   <v>       0.50000000       0.50000000       0.50000000 </v>
  </varray>
 </structure>
 <calculation>
  <scstep>
   <time name="dav">    0.06    0.06</time>
   <time name="total">    0.07    0.07</time>
   <energy>
    <i name="alphaZ">     23.48521011 </i>
    <i name="ewald">   -714.73299065 </i>
    <i name="hartreedc">   -281.00432529 </i>
    <i name="XCdc">     45.51667120 </i>
    <i name="pawpsdc">    827.07617940 </i>
    <i name="pawaedc">   -915.19001755 </i>
    <i name="eentropy">     -0.00000000 </i>
    <i name="bandstr">   -145.31627324 </i>
    <i name="atom">   1172.88060844 </i>
    <i name="e_fr_energy">     12.71506241 </i>
    <i name="e_wo_entrp">     12.71506241 </i>
    <i name="e_0_energy">     12.71506241 </i>
   </energy>
  </scstep>
  <scstep>
   <time name="dav">    0.10    0.10</time>
   <time name="total">    0.10    0.10</time>
   <energy>
    <i name="e_fr_energy">     -7.10655152 </i>
    <i name="e_wo_entrp">     -7.10655152 </i>
    <i name="e_0_energy">     -7.10655152 </i>
   </energy>
  </scstep>
  <scstep>
   <time name="dav">    0.05    0.06</time>
   <time name="total">    0.05    0.06</time>
   <energy>
    <i name="e_fr_energy">     -7.15639583 </i>
    <i name="e_wo_entrp">     -7.15639583 </i>
    <i name="e_0_energy">     -7.15639583 </i>
   </energy>
  </scstep>
  <scstep>
   <time name="dav">    0.15    0.16</time>
   <time name="total">    0.15    0.16</time>
   <energy>
    <i name="e_fr_energy">     -7.15644696 </i>
    <i name="e_wo_entrp">     -7.15644696 </i>
    <i name="e_0_energy">     -7.15644696 </i>
   </energy>
  </scstep>
  <scstep>
   <time name="dav">    0.05    0.06</time>
   <time name="total">    0.06    0.06</time>
   <energy>
    <i name="e_fr_energy">     -7.15644696 </i>
    <i name="e_wo_entrp">     -7.15644696 </i>
    <i name="e_0_energy">     -7.15644696 </i>
   </energy>
  </scstep>
  <scstep>
   <time name="dav">    0.07    0.07</time>
   <time name="total">    0.08    0.08</time>
   <energy>
    <i name="e_fr_energy">     -7.00216417 </i>
    <i name="e_wo_entrp">     -7.00216417 </i>
    <i name="e_0_energy">     -7.00216417 </i>
   </energy>
  </scstep>
  <scstep>
   <time name="dav">    0.12    0.12</time>
   <time name="total">    0.13    0.13</time>
   <energy>
    <i name="e_fr_energy">     -6.99120235 </i>
    <i name="e_wo_entrp">     -6.99120235 </i>
    <i name="e_0_energy">     -6.99120235 </i>
   </energy>
  </scstep>
  <scstep>
   <time name="dav">    0.09    0.09</time>
   <time name="total">    0.10    0.11</time>
   <energy>
    <i name="e_fr_energy">     -6.99461360 </i>
    <i name="e_wo_entrp">     -6.99461360 </i>
    <i name="e_0_energy">     -6.99461360 </i>
   </energy>
  </scstep>
  <scstep>
   <time name="dav">    0.09    0.09</time>
   <time name="total">    0.09    0.10</time>
   <energy>
    <i name="e_fr_energy">     -6.99467479 </i>
    <i name="e_wo_entrp">     -6.99467479 </i>
    <i name="e_0_energy">     -6.99467479 </i>
   </energy>
  </scstep>
  <scstep>
   <time name="dav">    0.09    0.10</time>
   <time name="total">    0.11    0.11</time>
   <energy>
    <i name="e_fr_energy">     -6.99477765 </i>
    <i name="e_wo_entrp">     -6.99477765 </i>
    <i name="e_0_energy">     -6.99477765 </i>
   </energy>
  </scstep>
  <scstep>
   <time name="dav">    0.08    0.09</time>
   <time name="total">    0.10    0.10</time>
   <energy>
    <i name="e_fr_energy">     -6.99477775 </i>
    <i name="e_wo_entrp">     -6.99477775 </i>
    <i name="e_0_energy">     -6.99477775 </i>
   </energy>
  </scstep>
  <scstep>
   <time name="dav">    0.10    0.10</time>
   <time name="total">    0.11    0.11</time>
   <energy>
    <i name="e_fr_energy">     -6.99477809 </i>
    <i name="e_wo_entrp">     -6.99477809 </i>
    <i name="e_0_energy">     -6.99477809 </i>
   </energy>
  </scstep>
  <scstep>
   <time name="dav">    0.10    0.10</time>
   <time name="total">    0.12    0.12</time>
   <energy>
    <i name="alphaZ">     23.48521011 </i>
    <i name="ewald">   -714.73299065 </i>
    <i name="hartreedc">   -283.70473798 </i>
    <i name="XCdc">     46.01781073 </i>
    <i name="pawpsdc">    921.68515684 </i>
    <i name="pawaedc">  -1009.79011873 </i>
    <i name="eentropy">     -0.00000000 </i>
    <i name="bandstr">   -162.83571686 </i>
    <i name="atom">   1172.88060844 </i>
    <i name="e_fr_energy">     -6.99477810 </i>
    <i name="e_wo_entrp">     -6.99477810 </i>
    <i name="e_0_energy">     -6.99477810 </i>
   </energy>
  </scstep>
  <structure>
   <crystal>
    <varray name="basis" >
     <v>       0.00000000       2.80100059       2.80100059 </v>
     <v>       2.80100059       0.00000000       2.80100059 </v>
     <v>       2.80100059       2.80100059       0.00000000 </v>
    </varray>
    <i name="volume">     43.95108458 </i>
    <varray name="rec_basis" >
     <v>      -0.17850764       0.17850764       0.17850764 </v>
     <v>       0.17850764      -0.17850764       0.17850764 </v>
     <v>       0.17850764       0.17850764      -0.17850764 </v>
    </varray>
   </crystal>
   <varray name="positions" >
    <v>       0.00000000       0.00000000       0.00000000 </v>
    <v>       0.50000000       0.50000000       0.50000000 </v>
   </varray>
  </structure>
  <varray name="forces" >
   <v>      -0.00000000       0.00000000      -0.00000000 </v>
   <v>       0.00000000      -0.00000000       0.00000000 </v>
  </varray>
  <varray name="stress" >
   <v>      -0.04946211       0.00000000      -0.00000000 </v>
   <v>       0.00000000      -0.04946211      -0.00000000 </v>
   <v>       0.00000000       0.00000000      -0.04946211 </v>
  </varray>
  <energy>
   <i name="e_fr_energy">     -6.99477810 </i>
   <i name="e_wo_entrp">     -6.99477810 </i>
   <i name="e_0_energy">     -6.99477810 </i>
  </energy>
  <scstep>
   <time name="total">    0.02    0.02</time>
   <energy>
    <i name="e_fr_energy">    -44.97504181 </i>
    <i name="e_wo_entrp">    -44.97504181 </i>
    <i name="e_0_energy">    -44.97504181 </i>
   </energy>
  </scstep>
  <scstep>
   <time name="total">    0.01    0.01</time>
   <energy>
    <i name="e_fr_energy">    -45.04583533 </i>
    <i name="e_wo_entrp">    -45.04583533 </i>
    <i name="e_0_energy">    -45.04583533 </i>
   </energy>
  </scstep>
  <scstep>
   <time name="total">    0.01    0.01</time>
   <energy>
    <i name="e_fr_energy">    -45.08420451 </i>
    <i name="e_wo_entrp">    -45.08420451 </i>
    <i name="e_0_energy">    -45.08420451 </i>
   </energy>
  </scstep>
  <scstep>
   <time name="total">    0.01    0.01</time>
   <energy>
    <i name="e_fr_energy">    -45.08498870 </i>
    <i name="e_wo_entrp">    -45.08498870 </i>
    <i name="e_0_energy">    -45.08498870 </i>
   </energy>
  </scstep>
  <scstep>
   <time name="total">    0.01    0.01</time>
   <energy>
    <i name="e_fr_energy">    -45.08508856 </i>
    <i name="e_wo_entrp">    -45.08508856 </i>
    <i name="e_0_energy">    -45.08508856 </i>
   </energy>
  </scstep>
  <scstep>
   <time name="total">    0.01    0.01</time>
   <energy>
    <i name="e_fr_energy">    -45.08509084 </i>
    <i name="e_wo_entrp">    -45.08509084 </i>
    <i name="e_0_energy">    -45.08509084 </i>
   </energy>
  </scstep>
  <scstep>
   <time name="total">    0.01    0.01</time>
   <energy>
    <i name="e_fr_energy">    -45.08509134 </i>
    <i name="e_wo_entrp">    -45.08509134 </i>
    <i name="e_0_energy">    -45.08509134 </i>
   </energy>
  </scstep>
  <scstep>
   <time name="total">    0.01    0.01</time>
   <energy>
    <i name="e_fr_energy">    -45.08509135 </i>
    <i name="e_wo_entrp">    -45.08509135 </i>
    <i name="e_0_energy">    -45.08509135 </i>
   </energy>
  </scstep>
  <scstep>
   <time name="total">    0.01    0.01</time>
   <energy>
    <i name="e_fr_energy">    -45.08509136 </i>
    <i name="e_wo_entrp">    -45.08509136 </i>
    <i name="e_0_energy">    -45.08509136 </i>
   </energy>
  </scstep>
  <scstep>
   <time name="total">    0.01    0.01</time>
   <energy>
    <i name="e_fr_energy">    -45.76126112 </i>
    <i name="e_wo_entrp">    -45.76126112 </i>
    <i name="e_0_energy">    -45.76126112 </i>
   </energy>
  </scstep>
  <scstep>
   <time name="total">    0.01    0.01</time>
   <energy>
    <i name="e_fr_energy">    -45.03920958 </i>
    <i name="e_wo_entrp">    -45.03920958 </i>
    <i name="e_0_energy">    -45.03920958 </i>
   </energy>
  </scstep>
  <scstep>
   <time name="total">    0.01    0.01</time>
   <energy>
    <i name="e_fr_energy">    -45.08787662 </i>
    <i name="e_wo_entrp">    -45.08787662 </i>
    <i name="e_0_energy">    -45.08787662 </i>
   </energy>
  </scstep>
  <scstep>
   <time name="total">    0.01    0.01</time>
   <energy>
    <i name="e_fr_energy">    -45.08877539 </i>
    <i name="e_wo_entrp">    -45.08877539 </i>
    <i name="e_0_energy">    -45.08877539 </i>
   </energy>
  </scstep>
  <scstep>
   <time name="total">    0.01    0.01</time>
   <energy>
    <i name="e_fr_energy">    -45.08887623 </i>
    <i name="e_wo_entrp">    -45.08887623 </i>
    <i name="e_0_energy">    -45.08887623 </i>
   </energy>
  </scstep>
  <scstep>
   <time name="total">    0.01    0.01</time>
   <energy>
    <i name="e_fr_energy">    -45.08887842 </i>
    <i name="e_wo_entrp">    -45.08887842 </i>
    <i name="e_0_energy">    -45.08887842 </i>
   </energy>
  </scstep>
  <scstep>
   <time name="total">    0.01    0.01</time>
   <energy>
    <i name="e_fr_energy">    -45.08887890 </i>
    <i name="e_wo_entrp">    -45.08887890 </i>
    <i name="e_0_energy">    -45.08887890 </i>
   </energy>
  </scstep>
  <scstep>
   <time name="total">    0.01    0.01</time>
   <energy>
    <i name="e_fr_energy">    -45.08887892 </i>
    <i name="e_wo_entrp">    -45.08887892 </i>
    <i name="e_0_energy">    -45.08887892 </i>
   </energy>
  </scstep>
  <scstep>
   <time name="total">    0.01    0.01</time>
   <energy>
    <i name="e_fr_energy">    -45.08887890 </i>
    <i name="e_wo_entrp">    -45.08887890 </i>
    <i name="e_0_energy">    -45.08887890 </i>
   </energy>
  </scstep>
  <scstep>
   <time name="total">    0.01    0.01</time>
   <energy>
    <i name="e_fr_energy">    -45.08887890 </i>
    <i name="e_wo_entrp">    -45.08887890 </i>
    <i name="e_0_energy">    -45.08887890 </i>
   </energy>
  </scstep>
  <scstep>
   <time name="total">    0.01    0.01</time>
   <energy>
    <i name="e_fr_energy">    -42.85896080 </i>
    <i name="e_wo_entrp">    -42.85896080 </i>
    <i name="e_0_energy">    -42.85896080 </i>
   </energy>
  </scstep>
  <scstep>
   <time name="total">    0.01    0.01</time>
   <energy>
    <i name="e_fr_energy">    -41.43767626 </i>
    <i name="e_wo_entrp">    -41.43767626 </i>
    <i name="e_0_energy">    -41.43767626 </i>
   </energy>
  </scstep>
  <scstep>
   <time name="total">    0.01    0.01</time>
   <energy>
    <i name="e_fr_energy">    -41.50280359 </i>
    <i name="e_wo_entrp">    -41.50280359 </i>
    <i name="e_0_energy">    -41.50280359 </i>
   </energy>
  </scstep>
  <scstep>
   <time name="total">    0.01    0.01</time>
   <energy>
    <i name="e_fr_energy">    -41.50325803 </i>
    <i name="e_wo_entrp">    -41.50325803 </i>
    <i name="e_0_energy">    -41.50325803 </i>
   </energy>
  </scstep>
  <scstep>
   <time name="total">    0.01    0.01</time>
   <energy>
    <i name="e_fr_energy">    -41.50328752 </i>
    <i name="e_wo_entrp">    -41.50328752 </i>
    <i name="e_0_energy">    -41.50328752 </i>
   </energy>
  </scstep>
  <scstep>
   <time name="total">    0.01    0.01</time>
   <energy>
    <i name="e_fr_energy">    -41.50328923 </i>
    <i name="e_wo_entrp">    -41.50328923 </i>
    <i name="e_0_energy">    -41.50328923 </i>
   </energy>
  </scstep>
  <scstep>
   <time name="total">    0.01    0.01</time>
   <energy>
    <i name="e_fr_energy">    -41.50328955 </i>
    <i name="e_wo_entrp">    -41.50328955 </i>
    <i name="e_0_energy">    -41.50328955 </i>
   </energy>
  </scstep>
  <scstep>
   <time name="total">    0.01    0.01</time>
   <energy>
    <i name="e_fr_energy">    -41.50328956 </i>
    <i name="e_wo_entrp">    -41.50328956 </i>
    <i name="e_0_energy">    -41.50328956 </i>
   </energy>
  </scstep>
  <scstep>
   <time name="total">    0.01    0.01</time>
   <energy>
    <i name="e_fr_energy">    -41.50328953 </i>
    <i name="e_wo_entrp">    -41.50328953 </i>
    <i name="e_0_energy">    -41.50328953 </i>
   </energy>
  </scstep>
  <scstep>
   <time name="total">    0.01    0.01</time>
   <energy>
    <i name="e_fr_energy">    -41.50328948 </i>
    <i name="e_wo_entrp">    -41.50328948 </i>
    <i name="e_0_energy">    -41.50328948 </i>
   </energy>
  </scstep>
  <scstep>
   <time name="total">    0.01    0.01</time>
   <energy>
    <i name="e_fr_energy">    -41.50328949 </i>
    <i name="e_wo_entrp">    -41.50328949 </i>
    <i name="e_0_energy">    -41.50328949 </i>
   </energy>
  </scstep>
  <scstep>
   <time name="total">    0.01    0.01</time>
   <energy>
    <i name="e_fr_energy">    -41.50328948 </i>
    <i name="e_wo_entrp">    -41.50328948 </i>
    <i name="e_0_energy">    -41.50328948 </i>
   </energy>
  </scstep>
  <scstep>
   <time name="total">    0.01    0.01</time>
   <energy>
    <i name="e_fr_energy">    -41.50328949 </i>
    <i name="e_wo_entrp">    -41.50328949 </i>
    <i name="e_0_energy">    -41.50328949 </i>
   </energy>
  </scstep>
  <scstep>
   <time name="total">    0.01    0.01</time>
   <energy>
    <i name="e_fr_energy">    -41.50328949 </i>
    <i name="e_wo_entrp">    -41.50328949 </i>
    <i name="e_0_energy">    -41.50328949 </i>
   </energy>
  </scstep>
  <scstep>
   <time name="total">    0.03    0.03</time>
   <energy>
    <i name="e_fr_energy">     -0.22139144 </i>
    <i name="e_wo_entrp">     -0.22139144 </i>
    <i name="e_0_energy">     -0.22139144 </i>
   </energy>
  </scstep>
  <scstep>
   <time name="total">    0.03    0.03</time>
   <energy>
    <i name="e_fr_energy">     -0.24916845 </i>
    <i name="e_wo_entrp">     -0.24916845 </i>
    <i name="e_0_energy">     -0.24916845 </i>
   </energy>
  </scstep>
  <scstep>
   <time name="total">    0.03    0.03</time>
   <energy>
    <i name="e_fr_energy">     -0.24920568 </i>
    <i name="e_wo_entrp">     -0.24920568 </i>
    <i name="e_0_energy">     -0.24920568 </i>
   </energy>
  </scstep>
  <scstep>
   <time name="total">    0.03    0.03</time>
   <energy>
    <i name="e_fr_energy">     -0.24920533 </i>
    <i name="e_wo_entrp">     -0.24920533 </i>
    <i name="e_0_energy">     -0.24920533 </i>
   </energy>
  </scstep>
  <scstep>
   <time name="total">    0.03    0.03</time>
   <energy>
    <i name="e_fr_energy">     -0.24920533 </i>
    <i name="e_wo_entrp">     -0.24920533 </i>
    <i name="e_0_energy">     -0.24920533 </i>
   </energy>
  </scstep>
  <scstep>
   <time name="total">    0.03    0.03</time>
   <energy>
    <i name="e_fr_energy">     -0.24920533 </i>
    <i name="e_wo_entrp">     -0.24920533 </i>
    <i name="e_0_energy">     -0.24920533 </i>
   </energy>
  </scstep>
  <scstep>
   <time name="total">    0.03    0.03</time>
   <energy>
    <i name="e_fr_energy">     -0.22131888 </i>
    <i name="e_wo_entrp">     -0.22131888 </i>
    <i name="e_0_energy">     -0.22131888 </i>
   </energy>
  </scstep>
  <scstep>
   <time name="total">    0.03    0.03</time>
   <energy>
    <i name="e_fr_energy">     -0.24846186 </i>
    <i name="e_wo_entrp">     -0.24846186 </i>
    <i name="e_0_energy">     -0.24846186 </i>
   </energy>
  </scstep>
  <scstep>
   <time name="total">    0.03    0.03</time>
   <energy>
    <i name="e_fr_energy">     -0.24849023 </i>
    <i name="e_wo_entrp">     -0.24849023 </i>
    <i name="e_0_energy">     -0.24849023 </i>
   </energy>
  </scstep>
  <scstep>
   <time name="total">    0.03    0.03</time>
   <energy>
    <i name="e_fr_energy">     -0.24848999 </i>
    <i name="e_wo_entrp">     -0.24848999 </i>
    <i name="e_0_energy">     -0.24848999 </i>
   </energy>
  </scstep>
  <scstep>
   <time name="total">    0.03    0.03</time>
   <energy>
    <i name="e_fr_energy">     -0.24848999 </i>
    <i name="e_wo_entrp">     -0.24848999 </i>
    <i name="e_0_energy">     -0.24848999 </i>
   </energy>
  </scstep>
  <scstep>
   <time name="total">    0.03    0.03</time>
   <energy>
    <i name="e_fr_energy">     -0.15912094 </i>
    <i name="e_wo_entrp">     -0.15912094 </i>
    <i name="e_0_energy">     -0.15912094 </i>
   </energy>
  </scstep>
  <scstep>
   <time name="total">    0.03    0.03</time>
   <energy>
    <i name="e_fr_energy">     -0.18084556 </i>
    <i name="e_wo_entrp">     -0.18084556 </i>
    <i name="e_0_energy">     -0.18084556 </i>
   </energy>
  </scstep>
  <scstep>
   <time name="total">    0.03    0.03</time>
   <energy>
    <i name="e_fr_energy">     -0.18090893 </i>
    <i name="e_wo_entrp">     -0.18090893 </i>
    <i name="e_0_energy">     -0.18090893 </i>
   </energy>
  </scstep>
  <scstep>
   <time name="total">    0.03    0.03</time>
   <energy>
    <i name="e_fr_energy">     -0.18090880 </i>
    <i name="e_wo_entrp">     -0.18090880 </i>
    <i name="e_0_energy">     -0.18090880 </i>
   </energy>
  </scstep>
  <scstep>
   <time name="total">    0.03    0.03</time>
   <energy>
    <i name="e_fr_energy">     -0.18090879 </i>
    <i name="e_wo_entrp">     -0.18090879 </i>
    <i name="e_0_energy">     -0.18090879 </i>
   </energy>
  </scstep>
  <varray name="dielectric_ipa" >
   <v>       2.86260830      -0.00000000       0.00000000 </v>
   <v>      -0.00000000       2.86260830      -0.00000000 </v>
   <v>       0.00000000      -0.00000000       2.86260830 </v>
  </varray>
  <kpoints>
   <generation param="Gamma">
    <v type="int" name="divisions">       4        4        4 </v>
    <v name="usershift">      0.00000000       0.00000000       0.00000000 </v>
    <v name="genvec1">      0.25000000      -0.00000000       0.00000000 </v>
    <v name="genvec2">     -0.00000000       0.25000000      -0.00000000 </v>
    <v name="genvec3">      0.00000000       0.00000000       0.25000000 </v>
    <v name="shift">      0.00000000       0.00000000       0.00000000 </v>
   </generation>
   <varray name="kpointlist" >
    <v>       0.00000000       0.00000000       0.00000000 </v>
    <v>       0.25000000      -0.00000000      -0.00000000 </v>
    <v>       0.50000000      -0.00000000      -0.00000000 </v>
    <v>       0.25000000       0.25000000      -0.00000000 </v>
    <v>      -0.00000000       0.25000000       0.25000000 </v>
    <v>       0.50000000       0.25000000      -0.00000000 </v>
    <v>      -0.00000000       0.50000000       0.25000000 </v>
    <v>      -0.25000000       0.25000000      -0.00000000 </v>
    <v>       0.00000000      -0.25000000       0.25000000 </v>
    <v>       0.50000000       0.50000000      -0.00000000 </v>
    <v>      -0.00000000       0.50000000       0.50000000 </v>
    <v>      -0.25000000       0.50000000       0.25000000 </v>
    <v>       0.50000000       0.25000000      -0.25000000 </v>
   </varray>
   <varray name="weights" >
    <v>       0.01562500 </v>
    <v>       0.12500000 </v>
    <v>       0.06250000 </v>
    <v>       0.06250000 </v>
    <v>       0.03125000 </v>
    <v>       0.25000000 </v>
    <v>       0.12500000 </v>
    <v>       0.12500000 </v>
    <v>       0.06250000 </v>
    <v>       0.03125000 </v>
    <v>       0.01562500 </v>
    <v>       0.06250000 </v>
    <v>       0.03125000 </v>
   </varray>
  </kpoints>
  <scstep>
   <time name="total">    0.03    0.03</time>
   <energy>
    <i name="e_fr_energy">     -0.19955635 </i>
    <i name="e_wo_entrp">     -0.19955635 </i>
    <i name="e_0_energy">     -0.19955635 </i>
   </energy>
  </scstep>
  <scstep>
   <time name="total">    0.04    0.04</time>
   <energy>
    <i name="e_fr_energy">     -0.22615241 </i>
    <i name="e_wo_entrp">     -0.22615241 </i>
    <i name="e_0_energy">     -0.22615241 </i>
   </energy>
  </scstep>
  <scstep>
   <time name="total">    0.04    0.04</time>
   <energy>
    <i name="e_fr_energy">     -0.20167224 </i>
    <i name="e_wo_entrp">     -0.20167224 </i>
    <i name="e_0_energy">     -0.20167224 </i>
   </energy>
  </scstep>
  <scstep>
   <time name="total">    0.04    0.04</time>
   <energy>
    <i name="e_fr_energy">     -0.20763660 </i>
    <i name="e_wo_entrp">     -0.20763660 </i>
    <i name="e_0_energy">     -0.20763660 </i>
   </energy>
  </scstep>
  <scstep>
   <time name="total">    0.04    0.04</time>
   <energy>
    <i name="e_fr_energy">     -0.21629971 </i>
    <i name="e_wo_entrp">     -0.21629971 </i>
    <i name="e_0_energy">     -0.21629971 </i>
   </energy>
  </scstep>
  <scstep>
   <time name="total">    0.04    0.04</time>
   <energy>
    <i name="e_fr_energy">     -0.21737478 </i>
    <i name="e_wo_entrp">     -0.21737478 </i>
    <i name="e_0_energy">     -0.21737478 </i>
   </energy>
  </scstep>
  <scstep>
   <time name="total">    0.04    0.04</time>
   <energy>
    <i name="e_fr_energy">     -0.21780887 </i>
    <i name="e_wo_entrp">     -0.21780887 </i>
    <i name="e_0_energy">     -0.21780887 </i>
   </energy>
  </scstep>
  <scstep>
   <time name="total">    0.04    0.04</time>
   <energy>
    <i name="e_fr_energy">     -0.21780514 </i>
    <i name="e_wo_entrp">     -0.21780514 </i>
    <i name="e_0_energy">     -0.21780514 </i>
   </energy>
  </scstep>
  <scstep>
   <time name="total">    0.04    0.04</time>
   <energy>
    <i name="e_fr_energy">     -0.21780686 </i>
    <i name="e_wo_entrp">     -0.21780686 </i>
    <i name="e_0_energy">     -0.21780686 </i>
   </energy>
  </scstep>
  <scstep>
   <time name="total">    0.04    0.04</time>
   <energy>
    <i name="e_fr_energy">     -0.21780614 </i>
    <i name="e_wo_entrp">     -0.21780614 </i>
    <i name="e_0_energy">     -0.21780614 </i>
   </energy>
  </scstep>
  <scstep>
   <time name="total">    0.04    0.04</time>
   <energy>
    <i name="e_fr_energy">     -0.21780572 </i>
    <i name="e_wo_entrp">     -0.21780572 </i>
    <i name="e_0_energy">     -0.21780572 </i>
   </energy>
  </scstep>
  <scstep>
   <time name="total">    0.04    0.04</time>
   <energy>
    <i name="e_fr_energy">     -0.21780572 </i>
    <i name="e_wo_entrp">     -0.21780572 </i>
    <i name="e_0_energy">     -0.21780572 </i>
   </energy>
  </scstep>
  <kpoints>
   <generation param="Gamma">
    <v type="int" name="divisions">       4        4        4 </v>
    <v name="usershift">      0.00000000       0.00000000       0.00000000 </v>
    <v name="genvec1">      0.25000000      -0.00000000       0.00000000 </v>
    <v name="genvec2">     -0.00000000       0.25000000      -0.00000000 </v>
    <v name="genvec3">      0.00000000       0.00000000       0.25000000 </v>
    <v name="shift">      0.00000000       0.00000000       0.00000000 </v>
   </generation>
   <varray name="kpointlist" >
    <v>       0.00000000       0.00000000       0.00000000 </v>
    <v>       0.25000000      -0.00000000      -0.00000000 </v>
    <v>       0.50000000      -0.00000000      -0.00000000 </v>
    <v>       0.25000000       0.25000000      -0.00000000 </v>
    <v>       0.25000000      -0.00000000       0.25000000 </v>
    <v>       0.50000000       0.25000000      -0.00000000 </v>
    <v>       0.25000000      -0.00000000       0.50000000 </v>
    <v>      -0.25000000       0.25000000      -0.00000000 </v>
    <v>       0.25000000       0.00000000      -0.25000000 </v>
    <v>       0.50000000       0.50000000      -0.00000000 </v>
    <v>       0.50000000      -0.00000000       0.50000000 </v>
    <v>      -0.25000000       0.50000000       0.25000000 </v>
    <v>       0.25000000      -0.25000000       0.50000000 </v>
   </varray>
   <varray name="weights" >
    <v>       0.01562500 </v>
    <v>       0.12500000 </v>
    <v>       0.06250000 </v>
    <v>       0.06250000 </v>
    <v>       0.03125000 </v>
    <v>       0.25000000 </v>
    <v>       0.12500000 </v>
    <v>       0.12500000 </v>
    <v>       0.06250000 </v>
    <v>       0.03125000 </v>
    <v>       0.01562500 </v>
    <v>       0.03125000 </v>
    <v>       0.06250000 </v>
   </varray>
  </kpoints>
  <scstep>
   <time name="total">    0.03    0.03</time>
   <energy>
    <i name="e_fr_energy">     -0.20128180 </i>
    <i name="e_wo_entrp">     -0.20128180 </i>
    <i name="e_0_energy">     -0.20128180 </i>
   </energy>
  </scstep>
  <scstep>
   <time name="total">    0.04    0.04</time>
   <energy>
    <i name="e_fr_energy">     -0.22616132 </i>
    <i name="e_wo_entrp">     -0.22616132 </i>
    <i name="e_0_energy">     -0.22616132 </i>
   </energy>
  </scstep>
  <scstep>
   <time name="total">    0.04    0.04</time>
   <energy>
    <i name="e_fr_energy">     -0.20167911 </i>
    <i name="e_wo_entrp">     -0.20167911 </i>
    <i name="e_0_energy">     -0.20167911 </i>
   </energy>
  </scstep>
  <scstep>
   <time name="total">    0.04    0.04</time>
   <energy>
    <i name="e_fr_energy">     -0.20763964 </i>
    <i name="e_wo_entrp">     -0.20763964 </i>
    <i name="e_0_energy">     -0.20763964 </i>
   </energy>
  </scstep>
  <scstep>
   <time name="total">    0.04    0.04</time>
   <energy>
    <i name="e_fr_energy">     -0.21629616 </i>
    <i name="e_wo_entrp">     -0.21629616 </i>
    <i name="e_0_energy">     -0.21629616 </i>
   </energy>
  </scstep>
  <scstep>
   <time name="total">    0.04    0.04</time>
   <energy>
    <i name="e_fr_energy">     -0.21736954 </i>
    <i name="e_wo_entrp">     -0.21736954 </i>
    <i name="e_0_energy">     -0.21736954 </i>
   </energy>
  </scstep>
  <scstep>
   <time name="total">    0.04    0.04</time>
   <energy>
    <i name="e_fr_energy">     -0.21780992 </i>
    <i name="e_wo_entrp">     -0.21780992 </i>
    <i name="e_0_energy">     -0.21780992 </i>
   </energy>
  </scstep>
  <scstep>
   <time name="total">    0.04    0.04</time>
   <energy>
    <i name="e_fr_energy">     -0.21780456 </i>
    <i name="e_wo_entrp">     -0.21780456 </i>
    <i name="e_0_energy">     -0.21780456 </i>
   </energy>
  </scstep>
  <scstep>
   <time name="total">    0.04    0.04</time>
   <energy>
    <i name="e_fr_energy">     -0.21780655 </i>
    <i name="e_wo_entrp">     -0.21780655 </i>
    <i name="e_0_energy">     -0.21780655 </i>
   </energy>
  </scstep>
  <scstep>
   <time name="total">    0.04    0.04</time>
   <energy>
    <i name="e_fr_energy">     -0.21780607 </i>
    <i name="e_wo_entrp">     -0.21780607 </i>
    <i name="e_0_energy">     -0.21780607 </i>
   </energy>
  </scstep>
  <scstep>
   <time name="total">    0.04    0.04</time>
   <energy>
    <i name="e_fr_energy">     -0.21780566 </i>
    <i name="e_wo_entrp">     -0.21780566 </i>
    <i name="e_0_energy">     -0.21780566 </i>
   </energy>
  </scstep>
  <scstep>
   <time name="total">    0.04    0.04</time>
   <energy>
    <i name="e_fr_energy">     -0.21780565 </i>
    <i name="e_wo_entrp">     -0.21780565 </i>
    <i name="e_0_energy">     -0.21780565 </i>
   </energy>
  </scstep>
  <kpoints>
   <generation param="Gamma">
    <v type="int" name="divisions">       4        4        4 </v>
    <v name="usershift">      0.00000000       0.00000000       0.00000000 </v>
    <v name="genvec1">      0.25000000      -0.00000000       0.00000000 </v>
    <v name="genvec2">     -0.00000000       0.25000000      -0.00000000 </v>
    <v name="genvec3">      0.00000000       0.00000000       0.25000000 </v>
    <v name="shift">      0.00000000       0.00000000       0.00000000 </v>
   </generation>
   <varray name="kpointlist" >
    <v>       0.00000000       0.00000000       0.00000000 </v>
    <v>       0.25000000      -0.00000000      -0.00000000 </v>
    <v>       0.50000000      -0.00000000      -0.00000000 </v>
    <v>       0.25000000       0.25000000      -0.00000000 </v>
    <v>      -0.00000000       0.25000000       0.25000000 </v>
    <v>       0.50000000       0.25000000      -0.00000000 </v>
    <v>      -0.00000000       0.50000000       0.25000000 </v>
    <v>      -0.25000000       0.25000000      -0.00000000 </v>
    <v>       0.00000000      -0.25000000       0.25000000 </v>
    <v>       0.50000000       0.50000000      -0.00000000 </v>
    <v>      -0.00000000       0.50000000       0.50000000 </v>
    <v>      -0.25000000       0.50000000       0.25000000 </v>
    <v>       0.25000000      -0.25000000       0.50000000 </v>
   </varray>
   <varray name="weights" >
    <v>       0.01562500 </v>
    <v>       0.12500000 </v>
    <v>       0.06250000 </v>
    <v>       0.03125000 </v>
    <v>       0.06250000 </v>
    <v>       0.12500000 </v>
    <v>       0.25000000 </v>
    <v>       0.06250000 </v>
    <v>       0.12500000 </v>
    <v>       0.01562500 </v>
    <v>       0.03125000 </v>
    <v>       0.06250000 </v>
    <v>       0.03125000 </v>
   </varray>
  </kpoints>
  <scstep>
   <time name="total">    0.03    0.03</time>
   <energy>
    <i name="e_fr_energy">     -0.20099310 </i>
    <i name="e_wo_entrp">     -0.20099310 </i>
    <i name="e_0_energy">     -0.20099310 </i>
   </energy>
  </scstep>
  <scstep>
   <time name="total">    0.04    0.04</time>
   <energy>
    <i name="e_fr_energy">     -0.22616219 </i>
    <i name="e_wo_entrp">     -0.22616219 </i>
    <i name="e_0_energy">     -0.22616219 </i>
   </energy>
  </scstep>
  <scstep>
   <time name="total">    0.04    0.04</time>
   <energy>
    <i name="e_fr_energy">     -0.20167944 </i>
    <i name="e_wo_entrp">     -0.20167944 </i>
    <i name="e_0_energy">     -0.20167944 </i>
   </energy>
  </scstep>
  <scstep>
   <time name="total">    0.04    0.04</time>
   <energy>
    <i name="e_fr_energy">     -0.20763942 </i>
    <i name="e_wo_entrp">     -0.20763942 </i>
    <i name="e_0_energy">     -0.20763942 </i>
   </energy>
  </scstep>
  <scstep>
   <time name="total">    0.04    0.04</time>
   <energy>
    <i name="e_fr_energy">     -0.21622471 </i>
    <i name="e_wo_entrp">     -0.21622471 </i>
    <i name="e_0_energy">     -0.21622471 </i>
   </energy>
  </scstep>
  <scstep>
   <time name="total">    0.04    0.04</time>
   <energy>
    <i name="e_fr_energy">     -0.21738877 </i>
    <i name="e_wo_entrp">     -0.21738877 </i>
    <i name="e_0_energy">     -0.21738877 </i>
   </energy>
  </scstep>
  <scstep>
   <time name="total">    0.04    0.04</time>
   <energy>
    <i name="e_fr_energy">     -0.21780626 </i>
    <i name="e_wo_entrp">     -0.21780626 </i>
    <i name="e_0_energy">     -0.21780626 </i>
   </energy>
  </scstep>
  <scstep>
   <time name="total">    0.04    0.04</time>
   <energy>
    <i name="e_fr_energy">     -0.21780602 </i>
    <i name="e_wo_entrp">     -0.21780602 </i>
    <i name="e_0_energy">     -0.21780602 </i>
   </energy>
  </scstep>
  <scstep>
   <time name="total">    0.04    0.04</time>
   <energy>
    <i name="e_fr_energy">     -0.21780690 </i>
    <i name="e_wo_entrp">     -0.21780690 </i>
    <i name="e_0_energy">     -0.21780690 </i>
   </energy>
  </scstep>
  <scstep>
   <time name="total">    0.04    0.04</time>
   <energy>
    <i name="e_fr_energy">     -0.21780606 </i>
    <i name="e_wo_entrp">     -0.21780606 </i>
    <i name="e_0_energy">     -0.21780606 </i>
   </energy>
  </scstep>
  <scstep>
   <time name="total">    0.04    0.04</time>
   <energy>
    <i name="e_fr_energy">     -0.21780564 </i>
    <i name="e_wo_entrp">     -0.21780564 </i>
    <i name="e_0_energy">     -0.21780564 </i>
   </energy>
  </scstep>
  <scstep>
   <time name="total">    0.04    0.04</time>
   <energy>
    <i name="e_fr_energy">     -0.21780565 </i>
    <i name="e_wo_entrp">     -0.21780565 </i>
    <i name="e_0_energy">     -0.21780565 </i>
   </energy>
  </scstep>
  <kpoints>
   <generation param="Gamma">
    <v type="int" name="divisions">       4        4        4 </v>
    <v name="usershift">      0.00000000       0.00000000       0.00000000 </v>
    <v name="genvec1">      0.25000000      -0.00000000       0.00000000 </v>
    <v name="genvec2">     -0.00000000       0.25000000      -0.00000000 </v>
    <v name="genvec3">      0.00000000       0.00000000       0.25000000 </v>
    <v name="shift">      0.00000000       0.00000000       0.00000000 </v>
   </generation>
   <varray name="kpointlist" >
    <v>       0.00000000       0.00000000       0.00000000 </v>
    <v>       0.25000000      -0.00000000      -0.00000000 </v>
    <v>       0.50000000      -0.00000000      -0.00000000 </v>
    <v>       0.25000000       0.25000000      -0.00000000 </v>
    <v>       0.50000000       0.25000000      -0.00000000 </v>
    <v>      -0.25000000       0.25000000      -0.00000000 </v>
    <v>       0.50000000       0.50000000      -0.00000000 </v>
    <v>      -0.25000000       0.50000000       0.25000000 </v>
   </varray>
   <varray name="weights" >
    <v>       0.01562500 </v>
    <v>       0.12500000 </v>
    <v>       0.06250000 </v>
    <v>       0.09375000 </v>
    <v>       0.37500000 </v>
    <v>       0.18750000 </v>
    <v>       0.04687500 </v>
    <v>       0.09375000 </v>
   </varray>
  </kpoints>
  <varray name="dielectric_dft" >
   <v>       2.60144578      -0.00000000       0.00000000 </v>
   <v>      -0.00000000       2.60144578      -0.00000000 </v>
   <v>       0.00000000       0.00000000       2.60144578 </v>
  </varray>
  <varray name="epsilon" >
   <v>       2.60144578      -0.00000000       0.00000000 </v>
   <v>      -0.00000000       2.60144578      -0.00000000 </v>
   <v>       0.00000000       0.00000000       2.60144578 </v>
  </varray>
  <kpoints>
   <generation param="Gamma">
    <v type="int" name="divisions">       4        4        4 </v>
    <v name="usershift">      0.00000000       0.00000000       0.00000000 </v>
    <v name="genvec1">      0.25000000      -0.00000000       0.00000000 </v>
    <v name="genvec2">     -0.00000000       0.25000000      -0.00000000 </v>
    <v name="genvec3">      0.00000000       0.00000000       0.25000000 </v>
    <v name="shift">      0.00000000       0.00000000       0.00000000 </v>
   </generation>
   <varray name="kpointlist" >
    <v>       0.00000000       0.00000000       0.00000000 </v>
    <v>       0.25000000      -0.00000000      -0.00000000 </v>
    <v>       0.50000000      -0.00000000      -0.00000000 </v>
    <v>       0.25000000       0.25000000      -0.00000000 </v>
    <v>       0.50000000       0.25000000      -0.00000000 </v>
    <v>      -0.25000000       0.25000000      -0.00000000 </v>
    <v>       0.50000000       0.50000000      -0.00000000 </v>
    <v>      -0.25000000       0.50000000       0.25000000 </v>
   </varray>
   <varray name="weights" >
    <v>       0.01562500 </v>
    <v>       0.12500000 </v>
    <v>       0.06250000 </v>
    <v>       0.09375000 </v>
    <v>       0.37500000 </v>
    <v>       0.18750000 </v>
    <v>       0.04687500 </v>
    <v>       0.09375000 </v>
   </varray>
  </kpoints>
  <array name="born_charges" >
   <dimension dim="1">ion</dimension>
   <set>
    <v>       1.10338842      -0.00000000       0.00000000 </v>
    <v>      -0.00000000       1.10338842      -0.00000000 </v>
    <v>       0.00000000       0.00000000       1.10338842 </v>
   </set>
   <set>
    <v>      -1.10338842       0.00000000      -0.00000000 </v>
    <v>       0.00000000      -1.10338842       0.00000000 </v>
    <v>      -0.00000000      -0.00000000      -1.10338842 </v>
   </set>
  </array>
  <time name="totalsc">    4.41    4.53</time>
  <eigenvalues>
   <array>
    <dimension dim="1">band</dimension>
    <dimension dim="2">kpoint</dimension>
    <dimension dim="3">spin</dimension>
    <field>eigene</field>
    <field>occ</field>
    <set>
     <set comment="spin 1">
      <set comment="kpoint 1">
       <r>  -21.2707    1.0000 </r>
       <r>  -21.2707    1.0000 </r>
       <r>  -21.2707    1.0000 </r>
       <r>  -13.3547    1.0000 </r>
       <r>   -0.6622    1.0000 </r>
       <r>   -0.6622    1.0000 </r>
       <r>   -0.6622    1.0000 </r>
       <r>    4.3418    0.0000 </r>
       <r>   10.3557    0.0000 </r>
       <r>   10.3557    0.0000 </r>
       <r>   10.3557    0.0000 </r>
       <r>   12.6072    0.0000 </r>
       <r>   12.6072    0.0000 </r>
       <r>   14.0040    0.0000 </r>
       <r>   16.5071    0.0000 </r>
       <r>   16.5071    0.0000 </r>
       <r>   16.5071    0.0000 </r>
       <r>   23.3959    0.0000 </r>
       <r>   26.1284    0.0000 </r>
       <r>   26.1284    0.0000 </r>
       <r>   26.1284    0.0000 </r>
       <r>   26.9739    0.0000 </r>
       <r>   26.9739    0.0000 </r>
       <r>   26.9739    0.0000 </r>
       <r>   30.2051    0.0000 </r>
       <r>   30.2051    0.0000 </r>
       <r>   33.7451    0.0000 </r>
       <r>   33.7452    0.0000 </r>
       <r>   33.7452    0.0000 </r>
       <r>   36.3145    0.0000 </r>
       <r>   36.3145    0.0000 </r>
       <r>   36.8810    0.0000 </r>
      </set>
      <set comment="kpoint 2">
       <r>  -21.2879    1.0000 </r>
       <r>  -21.2720    1.0000 </r>
       <r>  -21.2720    1.0000 </r>
       <r>  -13.1765    1.0000 </r>
       <r>   -1.8263    1.0000 </r>
       <r>   -0.8072    1.0000 </r>
       <r>   -0.8072    1.0000 </r>
       <r>    5.8331    0.0000 </r>
       <r>    9.2402    0.0000 </r>
       <r>   10.6642    0.0000 </r>
       <r>   10.6642    0.0000 </r>
       <r>   12.5475    0.0000 </r>
       <r>   12.5475    0.0000 </r>
       <r>   14.9603    0.0000 </r>
       <r>   18.2396    0.0000 </r>
       <r>   19.1862    0.0000 </r>
       <r>   19.1862    0.0000 </r>
       <r>   20.5228    0.0000 </r>
       <r>   21.5472    0.0000 </r>
       <r>   21.5472    0.0000 </r>
       <r>   26.3000    0.0000 </r>
       <r>   27.1976    0.0000 </r>
       <r>   27.1976    0.0000 </r>
       <r>   30.3903    0.0000 </r>
       <r>   30.3903    0.0000 </r>
       <r>   30.5392    0.0000 </r>
       <r>   33.0432    0.0000 </r>
       <r>   33.0432    0.0000 </r>
       <r>   34.5705    0.0000 </r>
       <r>   34.9865    0.0000 </r>
       <r>   37.4228    0.0000 </r>
       <r>   38.0534    0.0000 </r>
      </set>
      <set comment="kpoint 3">
       <r>  -21.3048    1.0000 </r>
       <r>  -21.2731    1.0000 </r>
       <r>  -21.2731    1.0000 </r>
       <r>  -12.9868    1.0000 </r>
       <r>   -2.6977    1.0000 </r>
       <r>   -0.9431    1.0000 </r>
       <r>   -0.9431    1.0000 </r>
       <r>    6.4461    0.0000 </r>
       <r>    9.9974    0.0000 </r>
       <r>   10.2493    0.0000 </r>
       <r>   10.2493    0.0000 </r>
       <r>   14.2945    0.0000 </r>
       <r>   15.5892    0.0000 </r>
       <r>   15.5892    0.0000 </r>
       <r>   16.5425    0.0000 </r>
       <r>   16.5426    0.0000 </r>
       <r>   17.0043    0.0000 </r>
       <r>   23.2720    0.0000 </r>
       <r>   23.2721    0.0000 </r>
       <r>   24.1634    0.0000 </r>
       <r>   24.9353    0.0000 </r>
       <r>   24.9353    0.0000 </r>
       <r>   26.6779    0.0000 </r>
       <r>   30.9393    0.0000 </r>
       <r>   30.9393    0.0000 </r>
       <r>   31.7501    0.0000 </r>
       <r>   31.7501    0.0000 </r>
       <r>   31.9275    0.0000 </r>
       <r>   32.3116    0.0000 </r>
       <r>   33.2832    0.0000 </r>
       <r>   36.2338    0.0000 </r>
       <r>   36.3903    0.0000 </r>
      </set>
      <set comment="kpoint 4">
       <r>  -21.2850    1.0000 </r>
       <r>  -21.2755    1.0000 </r>
       <r>  -21.2755    1.0000 </r>
       <r>  -13.1341    1.0000 </r>
       <r>   -1.7942    1.0000 </r>
       <r>   -0.9980    1.0000 </r>
       <r>   -0.9980    1.0000 </r>
       <r>    6.3699    0.0000 </r>
       <r>    8.2810    0.0000 </r>
       <r>   10.1427    0.0000 </r>
       <r>   11.7474    0.0000 </r>
       <r>   11.7474    0.0000 </r>
       <r>   13.4422    0.0000 </r>
       <r>   18.1048    0.0000 </r>
       <r>   18.1048    0.0000 </r>
       <r>   18.3245    0.0000 </r>
       <r>   19.1801    0.0000 </r>
       <r>   20.7617    0.0000 </r>
       <r>   20.7617    0.0000 </r>
       <r>   21.0389    0.0000 </r>
       <r>   25.1095    0.0000 </r>
       <r>   26.5945    0.0000 </r>
       <r>   27.1609    0.0000 </r>
       <r>   30.1084    0.0000 </r>
       <r>   30.1084    0.0000 </r>
       <r>   31.1510    0.0000 </r>
       <r>   33.0504    0.0000 </r>
       <r>   33.3526    0.0000 </r>
       <r>   33.3526    0.0000 </r>
       <r>   35.0611    0.0000 </r>
       <r>   36.9860    0.0000 </r>
       <r>   37.4250    0.0000 </r>
      </set>
      <set comment="kpoint 5">
       <r>  -21.2956    1.0000 </r>
       <r>  -21.2806    1.0000 </r>
       <r>  -21.2766    1.0000 </r>
       <r>  -12.9630    1.0000 </r>
       <r>   -2.3252    1.0000 </r>
       <r>   -1.4762    1.0000 </r>
       <r>   -1.1248    1.0000 </r>
       <r>    7.4004    0.0000 </r>
       <r>    8.5589    0.0000 </r>
       <r>    9.4008    0.0000 </r>
       <r>   11.5369    0.0000 </r>
       <r>   13.3654    0.0000 </r>
       <r>   15.6714    0.0000 </r>
       <r>   16.5001    0.0000 </r>
       <r>   16.8170    0.0000 </r>
       <r>   17.8569    0.0000 </r>
       <r>   19.7698    0.0000 </r>
       <r>   21.0935    0.0000 </r>
       <r>   22.4839    0.0000 </r>
       <r>   24.1030    0.0000 </r>
       <r>   24.7139    0.0000 </r>
       <r>   25.7607    0.0000 </r>
       <r>   26.4864    0.0000 </r>
       <r>   28.4661    0.0000 </r>
       <r>   29.4641    0.0000 </r>
       <r>   29.6968    0.0000 </r>
       <r>   30.8959    0.0000 </r>
       <r>   31.7662    0.0000 </r>
       <r>   33.3228    0.0000 </r>
       <r>   33.7445    0.0000 </r>
       <r>   34.9765    0.0000 </r>
       <r>   37.1157    0.0000 </r>
      </set>
      <set comment="kpoint 6">
       <r>  -21.2942    1.0000 </r>
       <r>  -21.2812    1.0000 </r>
       <r>  -21.2731    1.0000 </r>
       <r>  -13.0079    1.0000 </r>
       <r>   -2.2019    1.0000 </r>
       <r>   -1.5027    1.0000 </r>
       <r>   -0.9451    1.0000 </r>
       <r>    7.4659    0.0000 </r>
       <r>    8.9028    0.0000 </r>
       <r>    9.3012    0.0000 </r>
       <r>   11.1502    0.0000 </r>
       <r>   12.4972    0.0000 </r>
       <r>   15.1022    0.0000 </r>
       <r>   16.0663    0.0000 </r>
       <r>   17.7007    0.0000 </r>
       <r>   18.0826    0.0000 </r>
       <r>   19.9841    0.0000 </r>
       <r>   20.9850    0.0000 </r>
       <r>   22.6265    0.0000 </r>
       <r>   23.2895    0.0000 </r>
       <r>   23.6220    0.0000 </r>
       <r>   24.7276    0.0000 </r>
       <r>   28.6066    0.0000 </r>
       <r>   29.3245    0.0000 </r>
       <r>   29.6794    0.0000 </r>
       <r>   31.3800    0.0000 </r>
       <r>   31.5783    0.0000 </r>
       <r>   32.1703    0.0000 </r>
       <r>   32.9889    0.0000 </r>
       <r>   34.6008    0.0000 </r>
       <r>   35.8133    0.0000 </r>
       <r>   36.1377    0.0000 </r>
      </set>
      <set comment="kpoint 7">
       <r>  -21.2940    1.0000 </r>
       <r>  -21.2800    1.0000 </r>
       <r>  -21.2800    1.0000 </r>
       <r>  -12.9375    1.0000 </r>
       <r>   -2.4216    1.0000 </r>
       <r>   -1.2921    1.0000 </r>
       <r>   -1.2921    1.0000 </r>
       <r>    6.8288    0.0000 </r>
       <r>    7.2083    0.0000 </r>
       <r>   10.6076    0.0000 </r>
       <r>   14.1335    0.0000 </r>
       <r>   14.1335    0.0000 </r>
       <r>   14.6836    0.0000 </r>
       <r>   16.4674    0.0000 </r>
       <r>   16.4674    0.0000 </r>
       <r>   16.5705    0.0000 </r>
       <r>   21.7352    0.0000 </r>
       <r>   22.8227    0.0000 </r>
       <r>   22.8227    0.0000 </r>
       <r>   24.2694    0.0000 </r>
       <r>   24.4924    0.0000 </r>
       <r>   24.5629    0.0000 </r>
       <r>   25.6650    0.0000 </r>
       <r>   25.6650    0.0000 </r>
       <r>   27.0936    0.0000 </r>
       <r>   29.3120    0.0000 </r>
       <r>   31.8679    0.0000 </r>
       <r>   31.8679    0.0000 </r>
       <r>   32.5870    0.0000 </r>
       <r>   33.6926    0.0000 </r>
       <r>   37.4298    0.0000 </r>
       <r>   37.5788    0.0000 </r>
      </set>
      <set comment="kpoint 8">
       <r>  -21.2869    1.0000 </r>
       <r>  -21.2869    1.0000 </r>
       <r>  -21.2825    1.0000 </r>
       <r>  -12.9182    1.0000 </r>
       <r>   -1.9222    1.0000 </r>
       <r>   -1.9222    1.0000 </r>
       <r>   -1.4603    1.0000 </r>
       <r>    8.1694    0.0000 </r>
       <r>    8.9185    0.0000 </r>
       <r>    8.9185    0.0000 </r>
       <r>   10.6595    0.0000 </r>
       <r>   15.0675    0.0000 </r>
       <r>   15.0675    0.0000 </r>
       <r>   15.7133    0.0000 </r>
       <r>   16.5407    0.0000 </r>
       <r>   19.0882    0.0000 </r>
       <r>   21.5987    0.0000 </r>
       <r>   21.5987    0.0000 </r>
       <r>   22.1074    0.0000 </r>
       <r>   23.8209    0.0000 </r>
       <r>   24.6899    0.0000 </r>
       <r>   24.6899    0.0000 </r>
       <r>   25.7004    0.0000 </r>
       <r>   28.7628    0.0000 </r>
       <r>   30.2521    0.0000 </r>
       <r>   30.2521    0.0000 </r>
       <r>   30.8356    0.0000 </r>
       <r>   31.0293    0.0000 </r>
       <r>   31.7062    0.0000 </r>
       <r>   32.4525    0.0000 </r>
       <r>   32.4525    0.0000 </r>
       <r>   36.2242    0.0000 </r>
      </set>
     </set>
    </set>
   </array>
  </eigenvalues>
  <separator name="orbital magnetization" >
   <v name="MAGDIPOLOUT">      0.00000000      0.00000000      0.00000000</v>
  </separator>
  <dos>
   <i name="efermi">     -0.49482677 </i>
   <total>
    <array>
     <dimension dim="1">gridpoints</dimension>
     <dimension dim="2">spin</dimension>
     <field>energy</field>
     <field>total</field>
     <field>integrated</field>
     <set>
      <set comment="spin 1">
       <r>   -24.2727     0.0000     0.0000 </r>
       <r>   -24.0551     0.0000     0.0000 </r>
       <r>   -23.8374     0.0000     0.0000 </r>
       <r>   -23.6198     0.0000     0.0000 </r>
       <r>   -23.4021     0.0000     0.0000 </r>
       <r>   -23.1845     0.0000     0.0000 </r>
       <r>   -22.9668     0.0000     0.0000 </r>
       <r>   -22.7492     0.0000     0.0000 </r>
       <r>   -22.5316     0.0000     0.0000 </r>
       <r>   -22.3139     0.0000     0.0000 </r>
       <r>   -22.0963     0.0000     0.0000 </r>
       <r>   -21.8786     0.0000     0.0000 </r>
       <r>   -21.6610     0.0000     0.0000 </r>
       <r>   -21.4433     0.0000     0.0000 </r>
       <r>   -21.2257    27.5637     5.9991 </r>
       <r>   -21.0080     0.0000     6.0000 </r>
       <r>   -20.7904     0.0000     6.0000 </r>
       <r>   -20.5727     0.0000     6.0000 </r>
       <r>   -20.3551     0.0000     6.0000 </r>
       <r>   -20.1374     0.0000     6.0000 </r>
       <r>   -19.9198     0.0000     6.0000 </r>
       <r>   -19.7021     0.0000     6.0000 </r>
       <r>   -19.4845     0.0000     6.0000 </r>
       <r>   -19.2669     0.0000     6.0000 </r>
       <r>   -19.0492     0.0000     6.0000 </r>
       <r>   -18.8316     0.0000     6.0000 </r>
       <r>   -18.6139     0.0000     6.0000 </r>
       <r>   -18.3963     0.0000     6.0000 </r>
       <r>   -18.1786     0.0000     6.0000 </r>
       <r>   -17.9610     0.0000     6.0000 </r>
       <r>   -17.7433     0.0000     6.0000 </r>
       <r>   -17.5257     0.0000     6.0000 </r>
       <r>   -17.3080     0.0000     6.0000 </r>
       <r>   -17.0904     0.0000     6.0000 </r>
       <r>   -16.8727     0.0000     6.0000 </r>
       <r>   -16.6551     0.0000     6.0000 </r>
       <r>   -16.4374     0.0000     6.0000 </r>
       <r>   -16.2198     0.0000     6.0000 </r>
       <r>   -16.0022     0.0000     6.0000 </r>
       <r>   -15.7845     0.0000     6.0000 </r>
       <r>   -15.5669     0.0000     6.0000 </r>
       <r>   -15.3492     0.0000     6.0000 </r>
       <r>   -15.1316     0.0000     6.0000 </r>
       <r>   -14.9139     0.0000     6.0000 </r>
       <r>   -14.6963     0.0000     6.0000 </r>
       <r>   -14.4786     0.0000     6.0000 </r>
       <r>   -14.2610     0.0000     6.0000 </r>
       <r>   -14.0433     0.0000     6.0000 </r>
       <r>   -13.8257     0.0000     6.0000 </r>
       <r>   -13.6080     0.0000     6.0000 </r>
       <r>   -13.3904     0.0008     6.0002 </r>
       <r>   -13.1727     0.6965     6.1828 </r>
       <r>   -12.9551     4.7937     7.5121 </r>
       <r>   -12.7375     0.0000     8.0000 </r>
       <r>   -12.5198     0.0000     8.0000 </r>
       <r>   -12.3022     0.0000     8.0000 </r>
       <r>   -12.0845     0.0000     8.0000 </r>
       <r>   -11.8669     0.0000     8.0000 </r>
       <r>   -11.6492     0.0000     8.0000 </r>
       <r>   -11.4316     0.0000     8.0000 </r>
       <r>   -11.2139     0.0000     8.0000 </r>
       <r>   -10.9963     0.0000     8.0000 </r>
       <r>   -10.7786     0.0000     8.0000 </r>
       <r>   -10.5610     0.0000     8.0000 </r>
       <r>   -10.3433     0.0000     8.0000 </r>
       <r>   -10.1257     0.0000     8.0000 </r>
       <r>    -9.9080     0.0000     8.0000 </r>
       <r>    -9.6904     0.0000     8.0000 </r>
       <r>    -9.4728     0.0000     8.0000 </r>
       <r>    -9.2551     0.0000     8.0000 </r>
       <r>    -9.0375     0.0000     8.0000 </r>
       <r>    -8.8198     0.0000     8.0000 </r>
       <r>    -8.6022     0.0000     8.0000 </r>
       <r>    -8.3845     0.0000     8.0000 </r>
       <r>    -8.1669     0.0000     8.0000 </r>
       <r>    -7.9492     0.0000     8.0000 </r>
       <r>    -7.7316     0.0000     8.0000 </r>
       <r>    -7.5139     0.0000     8.0000 </r>
       <r>    -7.2963     0.0000     8.0000 </r>
       <r>    -7.0786     0.0000     8.0000 </r>
       <r>    -6.8610     0.0000     8.0000 </r>
       <r>    -6.6433     0.0000     8.0000 </r>
       <r>    -6.4257     0.0000     8.0000 </r>
       <r>    -6.2081     0.0000     8.0000 </r>
       <r>    -5.9904     0.0000     8.0000 </r>
       <r>    -5.7728     0.0000     8.0000 </r>
       <r>    -5.5551     0.0000     8.0000 </r>
       <r>    -5.3375     0.0000     8.0000 </r>
       <r>    -5.1198     0.0000     8.0000 </r>
       <r>    -4.9022     0.0000     8.0000 </r>
       <r>    -4.6845     0.0000     8.0000 </r>
       <r>    -4.4669     0.0000     8.0000 </r>
       <r>    -4.2492     0.0000     8.0000 </r>
       <r>    -4.0316     0.0000     8.0000 </r>
       <r>    -3.8139     0.0000     8.0000 </r>
       <r>    -3.5963     0.0000     8.0000 </r>
       <r>    -3.3786     0.0000     8.0000 </r>
       <r>    -3.1610     0.0000     8.0000 </r>
       <r>    -2.9434     0.0000     8.0000 </r>
       <r>    -2.7257     0.0137     8.0030 </r>
       <r>    -2.5081     0.0000     8.1250 </r>
       <r>    -2.2904     3.8527     8.9635 </r>
       <r>    -2.0728     1.7230     9.3438 </r>
       <r>    -1.8551     1.7468     9.7239 </r>
       <r>    -1.6375     0.8615    10.1562 </r>
       <r>    -1.4198     6.0285    11.4683 </r>
       <r>    -1.2022     0.8615    11.6563 </r>
       <r>    -0.9845     4.8811    12.7186 </r>
       <r>    -0.7669     2.2923    13.9052 </r>
       <r>    -0.5492     0.4307    14.0000 </r>
       <r>    -0.3316     0.0000    14.0000 </r>
       <r>    -0.1139     0.0000    14.0000 </r>
       <r>     0.1037     0.0000    14.0000 </r>
       <r>     0.3213     0.0000    14.0000 </r>
       <r>     0.5390     0.0000    14.0000 </r>
       <r>     0.7566     0.0000    14.0000 </r>
       <r>     0.9743     0.0000    14.0000 </r>
       <r>     1.1919     0.0000    14.0000 </r>
       <r>     1.4096     0.0000    14.0000 </r>
       <r>     1.6272     0.0000    14.0000 </r>
       <r>     1.8449     0.0000    14.0000 </r>
       <r>     2.0625     0.0000    14.0000 </r>
       <r>     2.2802     0.0000    14.0000 </r>
       <r>     2.4978     0.0000    14.0000 </r>
       <r>     2.7155     0.0000    14.0000 </r>
       <r>     2.9331     0.0000    14.0000 </r>
       <r>     3.1508     0.0000    14.0000 </r>
       <r>     3.3684     0.0000    14.0000 </r>
       <r>     3.5860     0.0000    14.0000 </r>
       <r>     3.8037     0.0000    14.0000 </r>
       <r>     4.0213     0.0000    14.0000 </r>
       <r>     4.2390     0.0000    14.0000 </r>
       <r>     4.4566     0.1436    14.0312 </r>
       <r>     4.6743     0.0000    14.0312 </r>
       <r>     4.8919     0.0000    14.0312 </r>
       <r>     5.1096     0.0000    14.0312 </r>
       <r>     5.3272     0.0000    14.0312 </r>
       <r>     5.5449     0.0000    14.0312 </r>
       <r>     5.7625     0.0000    14.0313 </r>
       <r>     5.9802     1.1487    14.2812 </r>
       <r>     6.1978     0.0000    14.2812 </r>
       <r>     6.4155     0.8697    14.4705 </r>
       <r>     6.6331     0.0000    14.5938 </r>
       <r>     6.8507     0.4047    14.6818 </r>
       <r>     7.0684     0.0000    14.6875 </r>
       <r>     7.2860     0.4307    14.7812 </r>
       <r>     7.5037     5.1624    15.9048 </r>
       <r>     7.7213     0.0000    15.9062 </r>
       <r>     7.9390     0.0000    15.9062 </r>
       <r>     8.1566     0.1572    15.9405 </r>
       <r>     8.3743     0.8615    16.2812 </r>
       <r>     8.5919     3.4121    17.0239 </r>
       <r>     8.8096     0.0000    17.0313 </r>
       <r>     9.0272     3.4460    17.7812 </r>
       <r>     9.2449     0.7222    17.9384 </r>
       <r>     9.4625     3.4459    19.1562 </r>
       <r>     9.6802     0.0000    19.1562 </r>
       <r>     9.8978     0.0000    19.1563 </r>
       <r>    10.1154     0.5976    19.2863 </r>
       <r>    10.3331     1.1724    19.7239 </r>
       <r>    10.5507     0.0000    19.8125 </r>
       <r>    10.7684     3.1588    20.5937 </r>
       <r>    10.9860     0.0000    20.5938 </r>
       <r>    11.2037     1.7228    20.9687 </r>
       <r>    11.4213     0.0000    20.9688 </r>
       <r>    11.6390     3.4460    21.7187 </r>
       <r>    11.8566     1.7230    22.0938 </r>
       <r>    12.0743     0.0000    22.0938 </r>
       <r>    12.2919     0.0000    22.0938 </r>
       <r>    12.5096     1.4028    22.3991 </r>
       <r>    12.7272     0.2872    23.0312 </r>
       <r>    12.9449     0.0000    23.0312 </r>
       <r>    13.1625     0.0000    23.0312 </r>
       <r>    13.3801     2.9360    23.6703 </r>
       <r>    13.5978     0.8615    23.9688 </r>
       <r>    13.8154     0.0000    23.9688 </r>
       <r>    14.0331     0.1407    23.9994 </r>
       <r>    14.2507     0.8621    24.1876 </r>
       <r>    14.4684     0.0000    24.3125 </r>
       <r>    14.6860     0.2442    24.3656 </r>
       <r>    14.9037     0.0000    24.4063 </r>
       <r>    15.1213     3.2947    25.3733 </r>
       <r>    15.3390     0.0000    25.4062 </r>
       <r>    15.5566     0.0123    25.4089 </r>
       <r>    15.7743     4.3074    26.5937 </r>
       <r>    15.9919     0.0000    26.5938 </r>
       <r>    16.2096     1.7230    26.9688 </r>
       <r>    16.4272     0.0019    26.9692 </r>
       <r>    16.6448     6.3176    28.5312 </r>
       <r>    16.8625     3.4437    29.2808 </r>
       <r>    17.0801     0.5743    29.4062 </r>
       <r>    17.2978     0.0000    29.4062 </r>
       <r>    17.5154     0.0000    29.4062 </r>
       <r>    17.7331     1.7039    29.7771 </r>
       <r>    17.9507     3.4460    30.5312 </r>
       <r>    18.1684     3.4459    31.2812 </r>
       <r>    18.3860     2.0101    31.7187 </r>
       <r>    18.6037     0.0000    31.7188 </r>
       <r>    18.8213     0.0000    31.7188 </r>
       <r>    19.0390     0.0002    31.7188 </r>
       <r>    19.2566     3.1588    32.5937 </r>
       <r>    19.4743     0.0000    32.5938 </r>
       <r>    19.6919     0.0000    32.5938 </r>
       <r>    19.9095     3.4460    33.3438 </r>
       <r>    20.1272     1.7230    33.7188 </r>
       <r>    20.3448     0.0000    33.7188 </r>
       <r>    20.5625     1.1458    33.9681 </r>
       <r>    20.7801     1.5569    34.3076 </r>
       <r>    20.9978     1.4085    34.6503 </r>
       <r>    21.2154     3.4460    35.6562 </r>
       <r>    21.4331     0.0000    35.6562 </r>
       <r>    21.6507     4.0201    36.5312 </r>
       <r>    21.8684     0.4307    36.6250 </r>
       <r>    22.0860     0.0563    36.6372 </r>
       <r>    22.3037     0.0000    36.8125 </r>
       <r>    22.5213     3.4318    37.5594 </r>
       <r>    22.7390     1.7230    37.9375 </r>
       <r>    22.9566     0.8615    38.1250 </r>
       <r>    23.1743     0.0000    38.1250 </r>
       <r>    23.3919     2.9274    38.7621 </r>
       <r>    23.6095     0.3252    38.8520 </r>
       <r>    23.8272     0.5783    39.2821 </r>
       <r>    24.0448     0.0001    39.3438 </r>
       <r>    24.2625     4.1551    40.2481 </r>
       <r>    24.4801     0.0827    40.3305 </r>
       <r>    24.6978     2.1222    40.8681 </r>
       <r>    24.9154     0.0917    42.0200 </r>
       <r>    25.1331     0.8202    42.4285 </r>
       <r>    25.3507     0.0000    42.4375 </r>
       <r>    25.5684     0.0000    42.4375 </r>
       <r>    25.7860     5.0421    43.5349 </r>
       <r>    26.0037     0.0000    43.5625 </r>
       <r>    26.2213     0.4307    43.6563 </r>
       <r>    26.4390     1.1500    43.9065 </r>
       <r>    26.6566     0.8993    44.8520 </r>
       <r>    26.8742     0.0000    44.9688 </r>
       <r>    27.0919     0.6259    45.1050 </r>
       <r>    27.3095     3.1588    45.8438 </r>
       <r>    27.5272     0.0000    45.8438 </r>
       <r>    27.7448     0.0000    45.8438 </r>
       <r>    27.9625     0.0000    45.8438 </r>
       <r>    28.1801     0.0000    45.8438 </r>
       <r>    28.3978     0.0000    45.8438 </r>
       <r>    28.6154     4.7097    46.8688 </r>
       <r>    28.8331     0.8615    47.1562 </r>
       <r>    29.0507     0.0000    47.1562 </r>
       <r>    29.2684     0.0005    47.1564 </r>
       <r>    29.4860     3.2360    48.3293 </r>
       <r>    29.7037     4.0137    49.2486 </r>
       <r>    29.9213     0.0000    49.5000 </r>
       <r>    30.1389     1.6966    49.8693 </r>
       <r>    30.3566     2.0298    50.3168 </r>
       <r>    30.5742     1.1411    51.0609 </r>
       <r>    30.7919     0.0009    51.0627 </r>
       <r>    31.0095     4.6641    52.2651 </r>
       <r>    31.2272     0.8615    52.6250 </r>
       <r>    31.4448     1.7230    53.0000 </r>
       <r>    31.6625     1.7238    53.3752 </r>
       <r>    31.8801     5.2887    54.7136 </r>
       <r>    32.0978     0.0000    54.8750 </r>
       <r>    32.3154     2.0710    55.3257 </r>
       <r>    32.5331     1.7230    55.7500 </r>
       <r>    32.7507     0.0000    55.8438 </r>
       <r>    32.9684     0.1259    55.8712 </r>
       <r>    33.1860     3.1588    56.9063 </r>
       <r>    33.4036     5.7430    58.1562 </r>
       <r>    33.6213     0.0000    58.1563 </r>
       <r>    33.8389     4.3074    59.0937 </r>
       <r>    34.0566     0.0000    59.0938 </r>
       <r>    34.2742     0.0000    59.0938 </r>
       <r>    34.4919     0.0000    59.0938 </r>
       <r>    34.7095     2.8716    59.7188 </r>
       <r>    34.9272     0.0009    59.7189 </r>
       <r>    35.1448     2.0101    60.9062 </r>
       <r>    35.3625     0.0000    60.9062 </r>
       <r>    35.5801     0.0000    60.9062 </r>
       <r>    35.7978     0.2335    60.9571 </r>
       <r>    36.0154     0.0000    61.2812 </r>
       <r>    36.2331     2.6315    61.8540 </r>
       <r>    36.4507     0.8615    62.1562 </r>
       <r>    36.6683     0.0000    62.1562 </r>
       <r>    36.8860     0.0915    62.1762 </r>
       <r>    37.1036     1.5418    62.5231 </r>
       <r>    37.3213     0.0000    63.1250 </r>
       <r>    37.5389     2.4419    63.6565 </r>
       <r>    37.7566     0.0000    63.7500 </r>
       <r>    37.9742     0.0000    63.7500 </r>
       <r>    38.1919     1.1487    64.0000 </r>
       <r>    38.4095     0.0000    64.0000 </r>
       <r>    38.6272     0.0000    64.0000 </r>
       <r>    38.8448     0.0000    64.0000 </r>
       <r>    39.0625     0.0000    64.0000 </r>
       <r>    39.2801     0.0000    64.0000 </r>
       <r>    39.4978     0.0000    64.0000 </r>
       <r>    39.7154     0.0000    64.0000 </r>
       <r>    39.9330     0.0000    64.0000 </r>
       <r>    40.1507     0.0000    64.0000 </r>
       <r>    40.3683     0.0000    64.0000 </r>
       <r>    40.5860     0.0000    64.0000 </r>
       <r>    40.8036     0.0000    64.0000 </r>
       <r>    41.0213     0.0000    64.0000 </r>
      </set>
     </set>
    </array>
   </total>
  </dos>
 </calculation>
 <structure name="finalpos" >
  <crystal>
   <varray name="basis" >
    <v>       0.00000000       2.80100059       2.80100059 </v>
    <v>       2.80100059       0.00000000       2.80100059 </v>
    <v>       2.80100059       2.80100059       0.00000000 </v>
   </varray>
   <i name="volume">     43.95108458 </i>
   <varray name="rec_basis" >
    <v>      -0.17850764       0.17850764       0.17850764 </v>
    <v>       0.17850764      -0.17850764       0.17850764 </v>
    <v>       0.17850764       0.17850764      -0.17850764 </v>
   </varray>
  </crystal>
  <varray name="positions" >
   <v>       0.00000000       0.00000000       0.00000000 </v>
   <v>       0.50000000       0.50000000       0.50000000 </v>
  </varray>
 </structure>
</modeling>
