  64  64   0   0
  0.2197554E+02  0.1120400E-08  0.1120400E-08  0.1120400E-08  0.5000000E-15
  1.000000000000000E-004
  CAR 
 unknown system                          
     11.05644399    -22.85034422  301     -0.55663097      1.00000000
    -22.850  0.0000E+00  0.0000E+00
    -22.737  0.0000E+00  0.0000E+00
    -22.624  0.0000E+00  0.0000E+00
    -22.511  0.0000E+00  0.0000E+00
    -22.398  0.0000E+00  0.0000E+00
    -22.285  0.0000E+00  0.0000E+00
    -22.172  0.0000E+00  0.0000E+00
    -22.059  0.0000E+00  0.0000E+00
    -21.946  0.0000E+00  0.0000E+00
    -21.833  0.0000E+00  0.0000E+00
    -21.720  0.0000E+00  0.0000E+00
    -21.607  0.0000E+00  0.0000E+00
    -21.494  0.0000E+00  0.0000E+00
    -21.381  0.6781E-05  0.7664E-06
    -21.268  0.1305E+04  0.1475E+03
    -21.155  0.3939E+03  0.1920E+03
    -21.042  0.0000E+00  0.1920E+03
    -20.929  0.0000E+00  0.1920E+03
    -20.816  0.0000E+00  0.1920E+03
    -20.703  0.0000E+00  0.1920E+03
    -20.590  0.0000E+00  0.1920E+03
    -20.477  0.0000E+00  0.1920E+03
    -20.364  0.0000E+00  0.1920E+03
    -20.251  0.0000E+00  0.1920E+03
    -20.138  0.0000E+00  0.1920E+03
    -20.025  0.0000E+00  0.1920E+03
    -19.912  0.0000E+00  0.1920E+03
    -19.799  0.0000E+00  0.1920E+03
    -19.686  0.0000E+00  0.1920E+03
    -19.573  0.0000E+00  0.1920E+03
    -19.460  0.0000E+00  0.1920E+03
    -19.347  0.0000E+00  0.1920E+03
    -19.234  0.0000E+00  0.1920E+03
    -19.121  0.0000E+00  0.1920E+03
    -19.008  0.0000E+00  0.1920E+03
    -18.895  0.0000E+00  0.1920E+03
    -18.782  0.0000E+00  0.1920E+03
    -18.669  0.0000E+00  0.1920E+03
    -18.555  0.0000E+00  0.1920E+03
    -18.442  0.0000E+00  0.1920E+03
    -18.329  0.0000E+00  0.1920E+03
    -18.216  0.0000E+00  0.1920E+03
    -18.103  0.0000E+00  0.1920E+03
    -17.990  0.0000E+00  0.1920E+03
    -17.877  0.0000E+00  0.1920E+03
    -17.764  0.0000E+00  0.1920E+03
    -17.651  0.0000E+00  0.1920E+03
    -17.538  0.0000E+00  0.1920E+03
    -17.425  0.0000E+00  0.1920E+03
    -17.312  0.0000E+00  0.1920E+03
    -17.199  0.0000E+00  0.1920E+03
    -17.086  0.0000E+00  0.1920E+03
    -16.973  0.0000E+00  0.1920E+03
    -16.860  0.0000E+00  0.1920E+03
    -16.747  0.0000E+00  0.1920E+03
    -16.634  0.0000E+00  0.1920E+03
    -16.521  0.0000E+00  0.1920E+03
    -16.408  0.0000E+00  0.1920E+03
    -16.295  0.0000E+00  0.1920E+03
    -16.182  0.0000E+00  0.1920E+03
    -16.069  0.0000E+00  0.1920E+03
    -15.956  0.0000E+00  0.1920E+03
    -15.843  0.0000E+00  0.1920E+03
    -15.730  0.0000E+00  0.1920E+03
    -15.617  0.0000E+00  0.1920E+03
    -15.504  0.0000E+00  0.1920E+03
    -15.391  0.0000E+00  0.1920E+03
    -15.278  0.0000E+00  0.1920E+03
    -15.165  0.0000E+00  0.1920E+03
    -15.052  0.0000E+00  0.1920E+03
    -14.939  0.0000E+00  0.1920E+03
    -14.826  0.0000E+00  0.1920E+03
    -14.713  0.0000E+00  0.1920E+03
    -14.600  0.0000E+00  0.1920E+03
    -14.487  0.0000E+00  0.1920E+03
    -14.374  0.0000E+00  0.1920E+03
    -14.261  0.0000E+00  0.1920E+03
    -14.148  0.0000E+00  0.1920E+03
    -14.035  0.0000E+00  0.1920E+03
    -13.922  0.0000E+00  0.1920E+03
    -13.809  0.0000E+00  0.1920E+03
    -13.696  0.0000E+00  0.1920E+03
    -13.582  0.0000E+00  0.1920E+03
    -13.469  0.3684E-14  0.1920E+03
    -13.356  0.1208E+01  0.1921E+03
    -13.243  0.1986E+02  0.1944E+03
    -13.130  0.4843E+02  0.1999E+03
    -13.017  0.1271E+03  0.2142E+03
    -12.904  0.3655E+03  0.2555E+03
    -12.791  0.4136E+01  0.2560E+03
    -12.678  0.0000E+00  0.2560E+03
    -12.565  0.0000E+00  0.2560E+03
    -12.452  0.0000E+00  0.2560E+03
    -12.339  0.0000E+00  0.2560E+03
    -12.226  0.0000E+00  0.2560E+03
    -12.113  0.0000E+00  0.2560E+03
    -12.000  0.0000E+00  0.2560E+03
    -11.887  0.0000E+00  0.2560E+03
    -11.774  0.0000E+00  0.2560E+03
    -11.661  0.0000E+00  0.2560E+03
    -11.548  0.0000E+00  0.2560E+03
    -11.435  0.0000E+00  0.2560E+03
    -11.322  0.0000E+00  0.2560E+03
    -11.209  0.0000E+00  0.2560E+03
    -11.096  0.0000E+00  0.2560E+03
    -10.983  0.0000E+00  0.2560E+03
    -10.870  0.0000E+00  0.2560E+03
    -10.757  0.0000E+00  0.2560E+03
    -10.644  0.0000E+00  0.2560E+03
    -10.531  0.0000E+00  0.2560E+03
    -10.418  0.0000E+00  0.2560E+03
    -10.305  0.0000E+00  0.2560E+03
    -10.192  0.0000E+00  0.2560E+03
    -10.079  0.0000E+00  0.2560E+03
     -9.966  0.0000E+00  0.2560E+03
     -9.853  0.0000E+00  0.2560E+03
     -9.740  0.0000E+00  0.2560E+03
     -9.627  0.0000E+00  0.2560E+03
     -9.514  0.0000E+00  0.2560E+03
     -9.401  0.0000E+00  0.2560E+03
     -9.288  0.0000E+00  0.2560E+03
     -9.175  0.0000E+00  0.2560E+03
     -9.062  0.0000E+00  0.2560E+03
     -8.949  0.0000E+00  0.2560E+03
     -8.836  0.0000E+00  0.2560E+03
     -8.723  0.0000E+00  0.2560E+03
     -8.609  0.0000E+00  0.2560E+03
     -8.496  0.0000E+00  0.2560E+03
     -8.383  0.0000E+00  0.2560E+03
     -8.270  0.0000E+00  0.2560E+03
     -8.157  0.0000E+00  0.2560E+03
     -8.044  0.0000E+00  0.2560E+03
     -7.931  0.0000E+00  0.2560E+03
     -7.818  0.0000E+00  0.2560E+03
     -7.705  0.0000E+00  0.2560E+03
     -7.592  0.0000E+00  0.2560E+03
     -7.479  0.0000E+00  0.2560E+03
     -7.366  0.0000E+00  0.2560E+03
     -7.253  0.0000E+00  0.2560E+03
     -7.140  0.0000E+00  0.2560E+03
     -7.027  0.0000E+00  0.2560E+03
     -6.914  0.0000E+00  0.2560E+03
     -6.801  0.0000E+00  0.2560E+03
     -6.688  0.0000E+00  0.2560E+03
     -6.575  0.0000E+00  0.2560E+03
     -6.462  0.0000E+00  0.2560E+03
     -6.349  0.0000E+00  0.2560E+03
     -6.236  0.0000E+00  0.2560E+03
     -6.123  0.0000E+00  0.2560E+03
     -6.010  0.0000E+00  0.2560E+03
     -5.897  0.0000E+00  0.2560E+03
     -5.784  0.0000E+00  0.2560E+03
     -5.671  0.0000E+00  0.2560E+03
     -5.558  0.0000E+00  0.2560E+03
     -5.445  0.0000E+00  0.2560E+03
     -5.332  0.0000E+00  0.2560E+03
     -5.219  0.0000E+00  0.2560E+03
     -5.106  0.0000E+00  0.2560E+03
     -4.993  0.0000E+00  0.2560E+03
     -4.880  0.0000E+00  0.2560E+03
     -4.767  0.0000E+00  0.2560E+03
     -4.654  0.0000E+00  0.2560E+03
     -4.541  0.0000E+00  0.2560E+03
     -4.428  0.0000E+00  0.2560E+03
     -4.315  0.0000E+00  0.2560E+03
     -4.202  0.0000E+00  0.2560E+03
     -4.089  0.0000E+00  0.2560E+03
     -3.976  0.0000E+00  0.2560E+03
     -3.863  0.0000E+00  0.2560E+03
     -3.750  0.0000E+00  0.2560E+03
     -3.636  0.0000E+00  0.2560E+03
     -3.523  0.0000E+00  0.2560E+03
     -3.410  0.0000E+00  0.2560E+03
     -3.297  0.0000E+00  0.2560E+03
     -3.184  0.0000E+00  0.2560E+03
     -3.071  0.0000E+00  0.2560E+03
     -2.958  0.0000E+00  0.2560E+03
     -2.845  0.0000E+00  0.2560E+03
     -2.732  0.9885E-01  0.2560E+03
     -2.619  0.8749E+01  0.2570E+03
     -2.506  0.2376E+02  0.2597E+03
     -2.393  0.8455E+02  0.2692E+03
     -2.280  0.8191E+02  0.2785E+03
     -2.167  0.1549E+03  0.2960E+03
     -2.054  0.7295E+02  0.3043E+03
     -1.941  0.5635E+02  0.3106E+03
     -1.828  0.6138E+02  0.3176E+03
     -1.715  0.7250E+02  0.3257E+03
     -1.602  0.1688E-09  0.3258E+03
     -1.489  0.6883E+02  0.3335E+03
     -1.376  0.1982E+03  0.3559E+03
     -1.263  0.2514E+02  0.3588E+03
     -1.150  0.2520E+03  0.3872E+03
     -1.037  0.1378E+03  0.4028E+03
     -0.924  0.2576E+03  0.4319E+03
     -0.811  0.6368E+02  0.4391E+03
     -0.698  0.7179E+02  0.4473E+03
     -0.585  0.6625E+01  0.4480E+03
     -0.472  0.0000E+00  0.4480E+03
     -0.359  0.0000E+00  0.4480E+03
     -0.246  0.0000E+00  0.4480E+03
     -0.133  0.0000E+00  0.4480E+03
     -0.020  0.0000E+00  0.4480E+03
      0.093  0.0000E+00  0.4480E+03
      0.206  0.0000E+00  0.4480E+03
      0.319  0.0000E+00  0.4480E+03
      0.432  0.0000E+00  0.4480E+03
      0.545  0.0000E+00  0.4480E+03
      0.658  0.0000E+00  0.4480E+03
      0.771  0.0000E+00  0.4480E+03
      0.884  0.0000E+00  0.4480E+03
      0.997  0.0000E+00  0.4480E+03
      1.110  0.0000E+00  0.4480E+03
      1.223  0.0000E+00  0.4480E+03
      1.336  0.0000E+00  0.4480E+03
      1.450  0.0000E+00  0.4480E+03
      1.563  0.0000E+00  0.4480E+03
      1.676  0.0000E+00  0.4480E+03
      1.789  0.0000E+00  0.4480E+03
      1.902  0.0000E+00  0.4480E+03
      2.015  0.0000E+00  0.4480E+03
      2.128  0.0000E+00  0.4480E+03
      2.241  0.0000E+00  0.4480E+03
      2.354  0.0000E+00  0.4480E+03
      2.467  0.0000E+00  0.4480E+03
      2.580  0.0000E+00  0.4480E+03
      2.693  0.0000E+00  0.4480E+03
      2.806  0.0000E+00  0.4480E+03
      2.919  0.0000E+00  0.4480E+03
      3.032  0.0000E+00  0.4480E+03
      3.145  0.0000E+00  0.4480E+03
      3.258  0.0000E+00  0.4480E+03
      3.371  0.0000E+00  0.4480E+03
      3.484  0.0000E+00  0.4480E+03
      3.597  0.0000E+00  0.4480E+03
      3.710  0.0000E+00  0.4480E+03
      3.823  0.0000E+00  0.4480E+03
      3.936  0.0000E+00  0.4480E+03
      4.049  0.0000E+00  0.4480E+03
      4.162  0.0000E+00  0.4480E+03
      4.275  0.4465E-05  0.4480E+03
      4.388  0.2211E+01  0.4482E+03
      4.501  0.0000E+00  0.4482E+03
      4.614  0.0000E+00  0.4482E+03
      4.727  0.0000E+00  0.4482E+03
      4.840  0.0000E+00  0.4482E+03
      4.953  0.9471E-05  0.4483E+03
      5.066  0.1326E+02  0.4497E+03
      5.179  0.1368E-01  0.4498E+03
      5.292  0.0000E+00  0.4498E+03
      5.405  0.0000E+00  0.4498E+03
      5.518  0.2002E+01  0.4500E+03
      5.631  0.2454E+02  0.4527E+03
      5.744  0.4631E-07  0.4528E+03
      5.857  0.1695E+02  0.4547E+03
      5.970  0.7483E+00  0.4548E+03
      6.083  0.0000E+00  0.4548E+03
      6.196  0.0000E+00  0.4548E+03
      6.309  0.4892E-03  0.4548E+03
      6.423  0.1378E+02  0.4563E+03
      6.536  0.8333E+01  0.4572E+03
      6.649  0.3940E+02  0.4617E+03
      6.762  0.6667E+02  0.4692E+03
      6.875  0.5899E+02  0.4759E+03
      6.988  0.1245E+02  0.4773E+03
      7.101  0.1650E+01  0.4775E+03
      7.214  0.4554E+01  0.4780E+03
      7.327  0.2255E+01  0.4783E+03
      7.440  0.8094E+02  0.4874E+03
      7.553  0.1672E+03  0.5063E+03
      7.666  0.3905E+01  0.5068E+03
      7.779  0.2653E+02  0.5097E+03
      7.892  0.1237E+00  0.5098E+03
      8.005  0.5296E+02  0.5157E+03
      8.118  0.3391E-02  0.5158E+03
      8.231  0.1378E+02  0.5173E+03
      8.344  0.9237E+02  0.5277E+03
      8.457  0.1686E-01  0.5278E+03
      8.570  0.1457E+03  0.5442E+03
      8.683  0.1358E+02  0.5458E+03
      8.796  0.4303E-06  0.5458E+03
      8.909  0.7821E+02  0.5546E+03
      9.022  0.1263E+03  0.5689E+03
      9.135  0.5657E+01  0.5695E+03
      9.248  0.2260E+02  0.5721E+03
      9.361  0.2164E+02  0.5745E+03
      9.474  0.1071E+01  0.5746E+03
      9.587  0.1220E+02  0.5760E+03
      9.700  0.0000E+00  0.5760E+03
      9.813  0.0000E+00  0.5760E+03
      9.926  0.0000E+00  0.5760E+03
     10.039  0.0000E+00  0.5760E+03
     10.152  0.0000E+00  0.5760E+03
     10.265  0.0000E+00  0.5760E+03
     10.378  0.0000E+00  0.5760E+03
     10.491  0.0000E+00  0.5760E+03
     10.604  0.0000E+00  0.5760E+03
     10.717  0.0000E+00  0.5760E+03
     10.830  0.0000E+00  0.5760E+03
     10.943  0.0000E+00  0.5760E+03
     11.056  0.0000E+00  0.5760E+03
