       N       E                     dE             d eps       ncg     rms          rms(c)
DAV:   1     0.431655807742E+04    0.43166E+04   -0.17183E+05  3456   0.125E+03
DAV:   2     0.363210347599E+03   -0.39533E+04   -0.37631E+04  3840   0.367E+02
DAV:   3    -0.206235084813E+03   -0.56945E+03   -0.56519E+03  4192   0.155E+02
DAV:   4    -0.228194424985E+03   -0.21959E+02   -0.21858E+02  4160   0.330E+01
DAV:   5    -0.229003824020E+03   -0.80940E+00   -0.80799E+00  4256   0.616E+00    0.106E+01
DAV:   6    -0.224138384095E+03    0.48654E+01   -0.94783E+00  4288   0.528E+00    0.776E+00
DAV:   7    -0.223777373275E+03    0.36101E+00   -0.20685E+00  4736   0.236E+00    0.533E+00
DAV:   8    -0.223902630770E+03   -0.12526E+00   -0.26649E-01  3968   0.123E+00    0.142E+00
DAV:   9    -0.223897093220E+03    0.55376E-02   -0.11488E-02  4288   0.263E-01    0.603E-01
DAV:  10    -0.223901369875E+03   -0.42767E-02   -0.18236E-02  4000   0.229E-01    0.285E-01
DAV:  11    -0.223900652806E+03    0.71707E-03   -0.15720E-03  4448   0.824E-02    0.873E-02
DAV:  12    -0.223900616373E+03    0.36433E-04   -0.13663E-04  4480   0.228E-02    0.191E-02
DAV:  13    -0.223900614100E+03    0.22732E-05   -0.25890E-05  4160   0.847E-03    0.350E-03
DAV:  14    -0.223900615524E+03   -0.14245E-05   -0.24785E-06  4064   0.365E-03    0.847E-03
DAV:  15    -0.223900616665E+03   -0.11408E-05   -0.33110E-07  4160   0.163E-03    0.390E-03
DAV:  16    -0.223900617210E+03   -0.54536E-06   -0.15718E-07  4224   0.906E-04    0.856E-04
DAV:  17    -0.223900617269E+03   -0.58921E-07   -0.87118E-09  2752   0.635E-04    0.226E-04
DAV:  18    -0.223900617383E+03   -0.11328E-06   -0.13232E-08  2784   0.407E-04    0.443E-04
DAV:  19    -0.223900617364E+03    0.18597E-07   -0.60111E-09  2336   0.281E-04    0.381E-04
DAV:  20    -0.223900617326E+03    0.37508E-07   -0.17381E-09  2400   0.363E-04    0.278E-04
DAV:  21    -0.223900617271E+03    0.55661E-07   -0.23053E-09  2368   0.176E-04    0.108E-04
DAV:  22    -0.223900617273E+03   -0.26266E-08   -0.11023E-09  2304   0.155E-04
   1 F= -.22390062E+03 E0= -.22390062E+03  d E =-.826720E-15
