<?xml version="1.0" encoding="ISO-8859-1"?>
<modeling>
 <generator>
  <i name="program" type="string">vasp </i>
  <i name="version" type="string">6.3.2  </i>
  <i name="subversion" type="string">27Jun22 (build Oct 14 2022 12:13:54) complex                          parallel </i>
  <i name="platform" type="string">LinuxIFC </i>
  <i name="date" type="string">2025 08 28 </i>
  <i name="time" type="string">22:00:40 </i>
 </generator>
 <incar>
  <i type="string" name="PREC">Accurate</i>
  <i type="int" name="IALGO">    38</i>
  <i type="logical" name="ADDGRID"> T  </i>
  <i type="int" name="NELMIN">     5</i>
  <i type="int" name="IBRION">    -1</i>
  <i name="EDIFF">      0.00000001</i>
  <i name="ENCUT">    341.21360000</i>
  <i type="logical" name="LREAL"> F  </i>
  <i type="int" name="ISMEAR">     0</i>
  <i name="SIGMA">      0.02000000</i>
  <i type="logical" name="LWAVE"> F  </i>
  <i type="logical" name="LCHARG"> F  </i>
  <i type="string" name="GGA">PS</i>
 </incar>
 <primitive_cell>
  <structure name="primitive_cell" >
   <crystal>
    <varray name="basis" >
     <v>      11.20400236       0.00000000       0.00000000 </v>
     <v>       0.00000000      11.20400236       0.00000000 </v>
     <v>       0.00000000       0.00000000      11.20400236 </v>
    </varray>
    <i name="volume">   1406.43470641 </i>
    <varray name="rec_basis" >
     <v>       0.08925382       0.00000000       0.00000000 </v>
     <v>       0.00000000       0.08925382       0.00000000 </v>
     <v>       0.00000000       0.00000000       0.08925382 </v>
    </varray>
   </crystal>
   <varray name="positions" >
    <v>       0.00267761       0.00000000       0.00000000 </v>
    <v>       0.25000000       0.25000000       0.00000000 </v>
    <v>       0.25000000       0.00000000       0.25000000 </v>
    <v>       0.00000000       0.25000000       0.25000000 </v>
    <v>       0.00000000       0.00000000       0.50000000 </v>
    <v>       0.25000000       0.25000000       0.50000000 </v>
    <v>       0.25000000       0.00000000       0.75000000 </v>
    <v>       0.00000000       0.25000000       0.75000000 </v>
    <v>       0.00000000       0.50000000       0.00000000 </v>
    <v>       0.25000000       0.75000000       0.00000000 </v>
    <v>       0.25000000       0.50000000       0.25000000 </v>
    <v>       0.00000000       0.75000000       0.25000000 </v>
    <v>       0.00000000       0.50000000       0.50000000 </v>
    <v>       0.25000000       0.75000000       0.50000000 </v>
    <v>       0.25000000       0.50000000       0.75000000 </v>
    <v>       0.00000000       0.75000000       0.75000000 </v>
    <v>       0.50000000       0.00000000       0.00000000 </v>
    <v>       0.75000000       0.25000000       0.00000000 </v>
    <v>       0.75000000       0.00000000       0.25000000 </v>
    <v>       0.50000000       0.25000000       0.25000000 </v>
    <v>       0.50000000       0.00000000       0.50000000 </v>
    <v>       0.75000000       0.25000000       0.50000000 </v>
    <v>       0.75000000       0.00000000       0.75000000 </v>
    <v>       0.50000000       0.25000000       0.75000000 </v>
    <v>       0.50000000       0.50000000       0.00000000 </v>
    <v>       0.75000000       0.75000000       0.00000000 </v>
    <v>       0.75000000       0.50000000       0.25000000 </v>
    <v>       0.50000000       0.75000000       0.25000000 </v>
    <v>       0.50000000       0.50000000       0.50000000 </v>
    <v>       0.75000000       0.75000000       0.50000000 </v>
    <v>       0.75000000       0.50000000       0.75000000 </v>
    <v>       0.50000000       0.75000000       0.75000000 </v>
    <v>       0.25267761       0.25000000       0.25000000 </v>
    <v>       0.00000000       0.00000000       0.25000000 </v>
    <v>       0.00000000       0.25000000       0.00000000 </v>
    <v>       0.25000000       0.00000000       0.00000000 </v>
    <v>       0.25000000       0.25000000       0.75000000 </v>
    <v>       0.00000000       0.00000000       0.75000000 </v>
    <v>       0.00000000       0.25000000       0.50000000 </v>
    <v>       0.25000000       0.00000000       0.50000000 </v>
    <v>       0.25000000       0.75000000       0.25000000 </v>
    <v>       0.00000000       0.50000000       0.25000000 </v>
    <v>       0.00000000       0.75000000       0.00000000 </v>
    <v>       0.25000000       0.50000000       0.00000000 </v>
    <v>       0.25000000       0.75000000       0.75000000 </v>
    <v>       0.00000000       0.50000000       0.75000000 </v>
    <v>       0.00000000       0.75000000       0.50000000 </v>
    <v>       0.25000000       0.50000000       0.50000000 </v>
    <v>       0.75000000       0.25000000       0.25000000 </v>
    <v>       0.50000000       0.00000000       0.25000000 </v>
    <v>       0.50000000       0.25000000       0.00000000 </v>
    <v>       0.75000000       0.00000000       0.00000000 </v>
    <v>       0.75000000       0.25000000       0.75000000 </v>
    <v>       0.50000000       0.00000000       0.75000000 </v>
    <v>       0.50000000       0.25000000       0.50000000 </v>
    <v>       0.75000000       0.00000000       0.50000000 </v>
    <v>       0.75000000       0.75000000       0.25000000 </v>
    <v>       0.50000000       0.50000000       0.25000000 </v>
    <v>       0.50000000       0.75000000       0.00000000 </v>
    <v>       0.75000000       0.50000000       0.00000000 </v>
    <v>       0.75000000       0.75000000       0.75000000 </v>
    <v>       0.50000000       0.50000000       0.75000000 </v>
    <v>       0.50000000       0.75000000       0.50000000 </v>
    <v>       0.75000000       0.50000000       0.50000000 </v>
   </varray>
  </structure>
  <varray name="primitive_index" >
   <v type="int" >        1 </v>
   <v type="int" >        2 </v>
   <v type="int" >        3 </v>
   <v type="int" >        4 </v>
   <v type="int" >        5 </v>
   <v type="int" >        6 </v>
   <v type="int" >        7 </v>
   <v type="int" >        8 </v>
   <v type="int" >        9 </v>
   <v type="int" >       10 </v>
   <v type="int" >       11 </v>
   <v type="int" >       12 </v>
   <v type="int" >       13 </v>
   <v type="int" >       14 </v>
   <v type="int" >       15 </v>
   <v type="int" >       16 </v>
   <v type="int" >       17 </v>
   <v type="int" >       18 </v>
   <v type="int" >       19 </v>
   <v type="int" >       20 </v>
   <v type="int" >       21 </v>
   <v type="int" >       22 </v>
   <v type="int" >       23 </v>
   <v type="int" >       24 </v>
   <v type="int" >       25 </v>
   <v type="int" >       26 </v>
   <v type="int" >       27 </v>
   <v type="int" >       28 </v>
   <v type="int" >       29 </v>
   <v type="int" >       30 </v>
   <v type="int" >       31 </v>
   <v type="int" >       32 </v>
   <v type="int" >       33 </v>
   <v type="int" >       34 </v>
   <v type="int" >       35 </v>
   <v type="int" >       36 </v>
   <v type="int" >       37 </v>
   <v type="int" >       38 </v>
   <v type="int" >       39 </v>
   <v type="int" >       40 </v>
   <v type="int" >       41 </v>
   <v type="int" >       42 </v>
   <v type="int" >       43 </v>
   <v type="int" >       44 </v>
   <v type="int" >       45 </v>
   <v type="int" >       46 </v>
   <v type="int" >       47 </v>
   <v type="int" >       48 </v>
   <v type="int" >       49 </v>
   <v type="int" >       50 </v>
   <v type="int" >       51 </v>
   <v type="int" >       52 </v>
   <v type="int" >       53 </v>
   <v type="int" >       54 </v>
   <v type="int" >       55 </v>
   <v type="int" >       56 </v>
   <v type="int" >       57 </v>
   <v type="int" >       58 </v>
   <v type="int" >       59 </v>
   <v type="int" >       60 </v>
   <v type="int" >       61 </v>
   <v type="int" >       62 </v>
   <v type="int" >       63 </v>
   <v type="int" >       64 </v>
  </varray>
 </primitive_cell>
 <kpoints>
  <generation param="Gamma">
   <v type="int" name="divisions">       2        2        2 </v>
   <v name="usershift">      0.00000000       0.00000000       0.00000000 </v>
   <v name="genvec1">      0.50000000       0.00000000       0.00000000 </v>
   <v name="genvec2">      0.00000000       0.50000000       0.00000000 </v>
   <v name="genvec3">      0.00000000       0.00000000       0.50000000 </v>
   <v name="shift">      0.00000000       0.00000000       0.00000000 </v>
  </generation>
  <varray name="kpointlist" >
   <v>       0.00000000       0.00000000       0.00000000 </v>
   <v>       0.50000000       0.00000000       0.00000000 </v>
   <v>       0.00000000       0.50000000       0.00000000 </v>
   <v>       0.50000000       0.50000000       0.00000000 </v>
   <v>       0.00000000       0.50000000       0.50000000 </v>
   <v>       0.50000000       0.50000000       0.50000000 </v>
  </varray>
  <varray name="weights" >
   <v>       0.12500000 </v>
   <v>       0.12500000 </v>
   <v>       0.25000000 </v>
   <v>       0.25000000 </v>
   <v>       0.12500000 </v>
   <v>       0.12500000 </v>
  </varray>
 </kpoints>
 <parameters>
  <separator name="general" >
   <i type="string" name="SYSTEM">unknown system</i>
   <i type="logical" name="LCOMPAT"> F  </i>
  </separator>
  <separator name="electronic" >
   <i type="string" name="PREC">accura</i>
   <i name="ENMAX">    341.21360000</i>
   <i name="ENAUG">    368.05600000</i>
   <i name="EDIFF">      0.00000001</i>
   <i type="int" name="IALGO">    38</i>
   <i type="int" name="IWAVPR">    10</i>
   <i type="int" name="NBANDS">   288</i>
   <i type="int" name="NBANDSLOW">    -1</i>
   <i type="int" name="NBANDSHIGH">    -1</i>
   <i name="NELECT">    448.00000000</i>
   <i type="int" name="TURBO">     0</i>
   <i type="int" name="IRESTART">     0</i>
   <i type="int" name="NREBOOT">     0</i>
   <i type="int" name="NMIN">     0</i>
   <i name="EREF">      0.00000000</i>
   <separator name="electronic smearing" >
    <i type="int" name="ISMEAR">     0</i>
    <i name="SIGMA">      0.02000000</i>
    <i name="KSPACING">      0.50000000</i>
    <i type="logical" name="KGAMMA"> T  </i>
    <i type="logical" name="KBLOWUP"> T  </i>
   </separator>
   <separator name="electronic projectors" >
    <i type="logical" name="LREAL"> F  </i>
    <v name="ROPT">      0.00000000      0.00000000</v>
    <i type="int" name="LMAXPAW">  -100</i>
    <i type="int" name="LMAXMIX">     2</i>
    <i type="logical" name="NLSPLINE"> F  </i>
   </separator>
   <separator name="electronic startup" >
    <i type="int" name="ISTART">     0</i>
    <i type="int" name="ICHARG">     2</i>
    <i type="int" name="INIWAV">     1</i>
   </separator>
   <separator name="electronic spin" >
    <i type="int" name="ISPIN">     1</i>
    <i type="logical" name="LNONCOLLINEAR"> F  </i>
    <v name="MAGMOM">      1.00000000      1.00000000      1.00000000      1.00000000      1.00000000      1.00000000      1.00000000      1.00000000      1.00000000      1.00000000      1.00000000      1.00000000      1.00000000      1.00000000      1.00000000      1.00000000      1.00000000      1.00000000      1.00000000      1.00000000
      1.00000000      1.00000000      1.00000000      1.00000000      1.00000000      1.00000000      1.00000000      1.00000000      1.00000000      1.00000000      1.00000000      1.00000000      1.00000000      1.00000000      1.00000000      1.00000000      1.00000000      1.00000000      1.00000000      1.00000000
      1.00000000      1.00000000      1.00000000      1.00000000      1.00000000      1.00000000      1.00000000      1.00000000      1.00000000      1.00000000      1.00000000      1.00000000      1.00000000      1.00000000      1.00000000      1.00000000      1.00000000      1.00000000      1.00000000      1.00000000
      1.00000000      1.00000000      1.00000000      1.00000000</v>
    <i name="NUPDOWN">     -1.00000000</i>
    <i type="logical" name="LSORBIT"> F  </i>
    <v name="SAXIS">      0.00000000      0.00000000      1.00000000</v>
    <i type="logical" name="LSPIRAL"> F  </i>
    <v name="QSPIRAL">      0.00000000      0.00000000      0.00000000</v>
    <i type="logical" name="LZEROZ"> F  </i>
   </separator>
   <separator name="electronic exchange-correlation" >
    <i type="logical" name="LASPH"> F  </i>
    <i type="logical" name="LMETAGGA"> F  </i>
   </separator>
   <separator name="electronic convergence" >
    <i type="int" name="NELM">    60</i>
    <i type="int" name="NELMDL">    -5</i>
    <i type="int" name="NELMIN">     5</i>
    <i name="ENINI">    341.21360000</i>
    <separator name="electronic convergence detail" >
     <i type="logical" name="LDIAG"> T  </i>
     <i type="logical" name="LSUBROT"> F  </i>
     <i name="WEIMIN">      0.00000000</i>
     <i name="EBREAK">      0.00000000</i>
     <i name="DEPER">      0.30000000</i>
     <i type="int" name="NRMM">     4</i>
     <i name="TIME">      0.40000000</i>
    </separator>
   </separator>
   <separator name="electronic mixer" >
    <i name="AMIX">      0.40000000</i>
    <i name="BMIX">      1.00000000</i>
    <i name="AMIN">      0.10000000</i>
    <i name="AMIX_MAG">      1.60000000</i>
    <i name="BMIX_MAG">      1.00000000</i>
    <separator name="electronic mixer details" >
     <i type="int" name="IMIX">     4</i>
     <i type="logical" name="MIXFIRST"> F  </i>
     <i type="int" name="MAXMIX">   -45</i>
     <i name="WC">    100.00000000</i>
     <i type="int" name="INIMIX">     1</i>
     <i type="int" name="MIXPRE">     1</i>
     <i type="int" name="MREMOVE">     5</i>
    </separator>
   </separator>
   <separator name="electronic dipolcorrection" >
    <i type="logical" name="LDIPOL"> F  </i>
    <i type="logical" name="LMONO"> F  </i>
    <i type="int" name="IDIPOL">     0</i>
    <i name="EPSILON">      1.00000000</i>
    <v name="DIPOL">   -100.00000000   -100.00000000   -100.00000000</v>
    <i name="EFIELD">      0.00000000</i>
   </separator>
  </separator>
  <separator name="grids" >
   <i type="int" name="NGX">    70</i>
   <i type="int" name="NGY">    70</i>
   <i type="int" name="NGZ">    70</i>
   <i type="int" name="NGXF">   140</i>
   <i type="int" name="NGYF">   140</i>
   <i type="int" name="NGZF">   140</i>
   <i type="logical" name="ADDGRID"> T  </i>
  </separator>
  <separator name="ionic" >
   <i type="int" name="NSW">     0</i>
   <i type="int" name="IBRION">    -1</i>
   <i type="int" name="MDALGO">     0</i>
   <i type="int" name="ISIF">     2</i>
   <i name="PSTRESS">      0.00000000</i>
   <i name="EDIFFG">      0.00000010</i>
   <i type="int" name="NFREE">     0</i>
   <i name="POTIM">      0.50000000</i>
   <i name="SMASS">     -3.00000000</i>
   <i name="SCALEE">      1.00000000</i>
  </separator>
  <separator name="ionic md" >
   <i name="TEBEG">      0.00010000</i>
   <i name="TEEND">      0.00010000</i>
   <i type="int" name="NBLOCK">     1</i>
   <i type="int" name="KBLOCK">     1</i>
   <i type="int" name="NPACO">   256</i>
   <i name="APACO">     10.00000000</i>
  </separator>
  <separator name="symmetry" >
   <i type="int" name="ISYM">     2</i>
   <i name="SYMPREC">      0.00001000</i>
  </separator>
  <separator name="dos" >
   <i type="int" name="LORBIT">     0</i>
   <v name="RWIGS">     -1.00000000     -1.00000000</v>
   <i type="int" name="NEDOS">   301</i>
   <i name="EMIN">     10.00000000</i>
   <i name="EMAX">    -10.00000000</i>
   <i name="EFERMI">      0.00000000</i>
  </separator>
  <separator name="writing" >
   <i type="int" name="NWRITE">     2</i>
   <i type="logical" name="LWAVE"> F  </i>
   <i type="logical" name="LDOWNSAMPLE"> F  </i>
   <i type="logical" name="LCHARG"> F  </i>
   <i type="logical" name="LPARD"> F  </i>
   <i type="logical" name="LVTOT"> F  </i>
   <i type="logical" name="LVHAR"> F  </i>
   <i type="logical" name="LELF"> F  </i>
   <i type="logical" name="LOPTICS"> F  </i>
   <v name="STM">      0.00000000      0.00000000      0.00000000      0.00000000      0.00000000      0.00000000      0.00000000</v>
  </separator>
  <separator name="performance" >
   <i type="int" name="NPAR">    32</i>
   <i type="int" name="NSIM">     4</i>
   <i type="int" name="NBLK">    -1</i>
   <i type="logical" name="LPLANE"> T  </i>
   <i type="logical" name="LSCALAPACK"> T  </i>
   <i type="logical" name="LSCAAWARE"> F  </i>
   <i type="logical" name="LSCALU"> F  </i>
   <i type="logical" name="LASYNC"> F  </i>
   <i type="logical" name="LORBITALREAL"> F  </i>
  </separator>
  <separator name="miscellaneous" >
   <i type="int" name="IDIOT">     3</i>
   <i type="int" name="PHON_NSTRUCT">    -1</i>
   <i type="logical" name="LMUSIC"> F  </i>
   <v name="POMASS">     22.99000000     35.45300000</v>
   <v name="DARWINR">      0.00000000      0.00000000</v>
   <v name="DARWINV">      1.00000000      1.00000000</v>
   <i type="logical" name="LCORR"> T  </i>
  </separator>
  <i type="logical" name="GGA_COMPAT"> T  </i>
  <i type="logical" name="LBERRY"> F  </i>
  <i type="int" name="ICORELEVEL">     0</i>
  <i type="logical" name="LDAU"> F  </i>
  <i type="int" name="I_CONSTRAINED_M">     0</i>
  <separator name="electronic exchange-correlation" >
   <i type="string" name="GGA">PS</i>
   <i type="int" name="VOSKOWN">     0</i>
   <i type="logical" name="LHFCALC"> F  </i>
   <i type="string" name="PRECFOCK"></i>
   <i type="logical" name="LSYMGRAD"> F  </i>
   <i type="logical" name="LHFONE"> F  </i>
   <i type="logical" name="LRHFCALC"> F  </i>
   <i type="logical" name="LTHOMAS"> F  </i>
   <i type="logical" name="LMODELHF"> F  </i>
   <i type="logical" name="LFOCKACE"> F  </i>
   <i name="ENCUT4O">     -1.00000000</i>
   <i type="int" name="EXXOEP">     0</i>
   <i type="int" name="FOURORBIT">     0</i>
   <i name="AEXX">      0.00000000</i>
   <i name="HFALPHA">      0.00000000</i>
   <i name="MCALPHA">      0.00000000</i>
   <i name="ALDAX">      1.00000000</i>
   <i name="AGGAX">      1.00000000</i>
   <i name="ALDAC">      1.00000000</i>
   <i name="AGGAC">      1.00000000</i>
   <i type="int" name="NKREDX">     1</i>
   <i type="int" name="NKREDY">     1</i>
   <i type="int" name="NKREDZ">     1</i>
   <i type="logical" name="SHIFTRED"> F  </i>
   <i type="logical" name="ODDONLY"> F  </i>
   <i type="logical" name="EVENONLY"> F  </i>
   <i type="int" name="LMAXFOCK">     0</i>
   <i type="int" name="NMAXFOCKAE">     0</i>
   <i type="logical" name="LFOCKAEDFT"> F  </i>
   <i name="HFSCREEN">      0.00000000</i>
   <i name="HFSCREENC">      0.00000000</i>
   <i type="int" name="NBANDSGWLOW">     0</i>
  </separator>
  <separator name="vdW DFT" >
   <i type="logical" name="LUSE_VDW"> F  </i>
   <i name="Zab_VDW">     -0.84910000</i>
   <i name="PARAM1">      0.12340000</i>
   <i name="PARAM2">      1.00000000</i>
   <i name="PARAM3">      0.00000000</i>
  </separator>
  <separator name="model GW" >
   <i type="int" name="MODEL_GW">     0</i>
   <i name="MODEL_EPS0">     13.18532537</i>
   <i name="MODEL_ALPHA">      1.00000000</i>
  </separator>
  <separator name="linear response parameters" >
   <i type="logical" name="LEPSILON"> F  </i>
   <i type="logical" name="LRPA"> F  </i>
   <i type="logical" name="LNABLA"> F  </i>
   <i type="logical" name="LVEL"> F  </i>
   <i name="CSHIFT">      0.10000000</i>
   <i name="OMEGAMAX">     -1.00000000</i>
   <i name="DEG_THRESHOLD">      0.00200000</i>
   <i name="RTIME">     -0.10000000</i>
   <i name="WPLASMAI">      0.00000000</i>
   <v name="DFIELD">      0.00000000      0.00000000      0.00000000</v>
   <v name="WPLASMA">      0.00000000      0.00000000      0.00000000      0.00000000      0.00000000      0.00000000      0.00000000      0.00000000      0.00000000</v>
  </separator>
  <separator name="orbital magnetization" >
   <i type="logical" name="NUCIND"> F  </i>
   <v name="MAGPOS">      0.00000000      0.00000000      0.00000000</v>
   <i type="logical" name="LNICSALL"> T  </i>
   <i type="logical" name="ORBITALMAG"> F  </i>
   <i type="logical" name="LMAGBLOCH"> F  </i>
   <i type="logical" name="LCHIMAG"> F  </i>
   <i type="logical" name="LGAUGE"> T  </i>
   <i type="int" name="MAGATOM">     0</i>
   <v name="MAGDIPOL">      0.00000000      0.00000000      0.00000000</v>
   <v name="AVECCONST">      0.00000000      0.00000000      0.00000000</v>
  </separator>
  <separator name="response functions" >
   <i type="logical" name="LFINITE_TEMPERATURE"> F  </i>
   <i type="logical" name="LADDER"> F  </i>
   <i type="logical" name="LRPAFORCE"> F  </i>
   <i type="logical" name="LFXC"> F  </i>
   <i type="logical" name="LHARTREE"> T  </i>
   <i type="int" name="IBSE">     0</i>
   <v type="int" name="KPOINT">    -1     0     0     0</v>
   <i type="logical" name="LTCTC"> F  </i>
   <i type="logical" name="LTCTE"> F  </i>
   <i type="logical" name="LTETE"> F  </i>
   <i type="logical" name="LTRIPLET"> F  </i>
   <i type="logical" name="LFXCEPS"> F  </i>
   <i type="logical" name="LFXHEG"> F  </i>
   <i type="int" name="NATURALO">     2</i>
   <i type="logical" name="LHOLEGF"> F  </i>
   <i type="logical" name="L2ORDER"> F  </i>
   <i type="logical" name="LDMP1"> F  </i>
   <i type="logical" name="LMP2LT"> F  </i>
   <i type="logical" name="LSMP2LT"> F  </i>
   <i type="logical" name="LGWLF"> F  </i>
   <i name="ENCUTGW">     -2.00000000</i>
   <i name="ENCUTGWSOFT">     -2.00000000</i>
   <i name="ENCUTLF">     -1.00000000</i>
   <i type="logical" name="LESF_SPLINES"> F  </i>
   <i type="int" name="LMAXMP2">    -1</i>
   <i name="SCISSOR">      0.00000000</i>
   <i type="int" name="NOMEGA">     0</i>
   <i type="int" name="NOMEGAR">     0</i>
   <i type="int" name="NBANDSGW">    -1</i>
   <i type="int" name="NBANDSO">    -1</i>
   <i type="int" name="NBANDSV">    -1</i>
   <i type="int" name="NELMGW">     1</i>
   <i type="int" name="NELMHF">     1</i>
   <i type="int" name="DIM">     3</i>
   <i type="int" name="IESPILON">     4</i>
   <i type="int" name="ANTIRES">     0</i>
   <i name="OMEGAMAX">    -30.00000000</i>
   <i name="OMEGAMIN">    -30.00000000</i>
   <i name="OMEGATL">   -200.00000000</i>
   <i type="int" name="OMEGAGRID">     0</i>
   <i name="CSHIFT">     -0.10000000</i>
   <i type="logical" name="LSELFENERGY"> F  </i>
   <i type="logical" name="LSPECTRAL"> F  </i>
   <i type="logical" name="LSPECTRALGW"> F  </i>
   <i type="logical" name="LSINGLES"> F  </i>
   <i type="logical" name="LFERMIGW"> F  </i>
   <i type="logical" name="ODDONLYGW"> F  </i>
   <i type="logical" name="EVENONLYGW"> F  </i>
   <i type="int" name="NKREDLFX">     1</i>
   <i type="int" name="NKREDLFY">     1</i>
   <i type="int" name="NKREDLFZ">     1</i>
   <i type="int" name="MAXMEM">  2800</i>
   <i type="int" name="TELESCOPE">     0</i>
   <i type="int" name="NTAUPAR">    -1</i>
   <i type="int" name="NOMEGAPAR">    -1</i>
   <i name="DAMP_NEWTON">      0.80000001</i>
   <i name="LAMBDA">      1.00000000</i>
  </separator>
  <separator name="External order field" >
   <i name="OFIELD_KAPPA">      0.00000000</i>
   <v name="OFIELD_K">      0.00000000      0.00000000      0.00000000</v>
   <i name="OFIELD_Q6_NEAR">      0.00000000</i>
   <i name="OFIELD_Q6_FAR">      0.00000000</i>
   <i name="OFIELD_A">      0.00000000</i>
  </separator>
  <separator name="optional k-points parameters" >
   <i type="int" name="KPOINTS_OPT_MODE">     1</i>
   <i type="logical" name="LKPOINTS_OPT"> F  </i>
  </separator>
 </parameters>
 <atominfo>
  <atoms>      64 </atoms>
  <types>       2 </types>
  <array name="atoms" >
   <dimension dim="1">ion</dimension>
   <field type="string">element</field>
   <field type="int">atomtype</field>
   <set>
    <rc><c>Na</c><c>   1</c></rc>
    <rc><c>Na</c><c>   1</c></rc>
    <rc><c>Na</c><c>   1</c></rc>
    <rc><c>Na</c><c>   1</c></rc>
    <rc><c>Na</c><c>   1</c></rc>
    <rc><c>Na</c><c>   1</c></rc>
    <rc><c>Na</c><c>   1</c></rc>
    <rc><c>Na</c><c>   1</c></rc>
    <rc><c>Na</c><c>   1</c></rc>
    <rc><c>Na</c><c>   1</c></rc>
    <rc><c>Na</c><c>   1</c></rc>
    <rc><c>Na</c><c>   1</c></rc>
    <rc><c>Na</c><c>   1</c></rc>
    <rc><c>Na</c><c>   1</c></rc>
    <rc><c>Na</c><c>   1</c></rc>
    <rc><c>Na</c><c>   1</c></rc>
    <rc><c>Na</c><c>   1</c></rc>
    <rc><c>Na</c><c>   1</c></rc>
    <rc><c>Na</c><c>   1</c></rc>
    <rc><c>Na</c><c>   1</c></rc>
    <rc><c>Na</c><c>   1</c></rc>
    <rc><c>Na</c><c>   1</c></rc>
    <rc><c>Na</c><c>   1</c></rc>
    <rc><c>Na</c><c>   1</c></rc>
    <rc><c>Na</c><c>   1</c></rc>
    <rc><c>Na</c><c>   1</c></rc>
    <rc><c>Na</c><c>   1</c></rc>
    <rc><c>Na</c><c>   1</c></rc>
    <rc><c>Na</c><c>   1</c></rc>
    <rc><c>Na</c><c>   1</c></rc>
    <rc><c>Na</c><c>   1</c></rc>
    <rc><c>Na</c><c>   1</c></rc>
    <rc><c>Cl</c><c>   2</c></rc>
    <rc><c>Cl</c><c>   2</c></rc>
    <rc><c>Cl</c><c>   2</c></rc>
    <rc><c>Cl</c><c>   2</c></rc>
    <rc><c>Cl</c><c>   2</c></rc>
    <rc><c>Cl</c><c>   2</c></rc>
    <rc><c>Cl</c><c>   2</c></rc>
    <rc><c>Cl</c><c>   2</c></rc>
    <rc><c>Cl</c><c>   2</c></rc>
    <rc><c>Cl</c><c>   2</c></rc>
    <rc><c>Cl</c><c>   2</c></rc>
    <rc><c>Cl</c><c>   2</c></rc>
    <rc><c>Cl</c><c>   2</c></rc>
    <rc><c>Cl</c><c>   2</c></rc>
    <rc><c>Cl</c><c>   2</c></rc>
    <rc><c>Cl</c><c>   2</c></rc>
    <rc><c>Cl</c><c>   2</c></rc>
    <rc><c>Cl</c><c>   2</c></rc>
    <rc><c>Cl</c><c>   2</c></rc>
    <rc><c>Cl</c><c>   2</c></rc>
    <rc><c>Cl</c><c>   2</c></rc>
    <rc><c>Cl</c><c>   2</c></rc>
    <rc><c>Cl</c><c>   2</c></rc>
    <rc><c>Cl</c><c>   2</c></rc>
    <rc><c>Cl</c><c>   2</c></rc>
    <rc><c>Cl</c><c>   2</c></rc>
    <rc><c>Cl</c><c>   2</c></rc>
    <rc><c>Cl</c><c>   2</c></rc>
    <rc><c>Cl</c><c>   2</c></rc>
    <rc><c>Cl</c><c>   2</c></rc>
    <rc><c>Cl</c><c>   2</c></rc>
    <rc><c>Cl</c><c>   2</c></rc>
   </set>
  </array>
  <array name="atomtypes" >
   <dimension dim="1">type</dimension>
   <field type="int">atomspertype</field>
   <field type="string">element</field>
   <field>mass</field>
   <field>valence</field>
   <field type="string">pseudopotential</field>
   <set>
    <rc><c>  32</c><c>Na</c><c>     22.99000000</c><c>      7.00000000</c><c>  PAW_PBE Na_pv 19Sep2006               </c></rc>
    <rc><c>  32</c><c>Cl</c><c>     35.45300000</c><c>      7.00000000</c><c>  PAW_PBE Cl 06Sep2000                  </c></rc>
   </set>
  </array>
 </atominfo>
 <structure name="initialpos" >
  <crystal>
   <varray name="basis" >
    <v>      11.20400236       0.00000000       0.00000000 </v>
    <v>       0.00000000      11.20400236       0.00000000 </v>
    <v>       0.00000000       0.00000000      11.20400236 </v>
   </varray>
   <i name="volume">   1406.43470641 </i>
   <varray name="rec_basis" >
    <v>       0.08925382       0.00000000       0.00000000 </v>
    <v>       0.00000000       0.08925382       0.00000000 </v>
    <v>       0.00000000       0.00000000       0.08925382 </v>
   </varray>
  </crystal>
  <varray name="positions" >
   <v>       0.00267761       0.00000000       0.00000000 </v>
   <v>       0.25000000       0.25000000       0.00000000 </v>
   <v>       0.25000000       0.00000000       0.25000000 </v>
   <v>       0.00000000       0.25000000       0.25000000 </v>
   <v>       0.00000000       0.00000000       0.50000000 </v>
   <v>       0.25000000       0.25000000       0.50000000 </v>
   <v>       0.25000000       0.00000000       0.75000000 </v>
   <v>       0.00000000       0.25000000       0.75000000 </v>
   <v>       0.00000000       0.50000000       0.00000000 </v>
   <v>       0.25000000       0.75000000       0.00000000 </v>
   <v>       0.25000000       0.50000000       0.25000000 </v>
   <v>       0.00000000       0.75000000       0.25000000 </v>
   <v>       0.00000000       0.50000000       0.50000000 </v>
   <v>       0.25000000       0.75000000       0.50000000 </v>
   <v>       0.25000000       0.50000000       0.75000000 </v>
   <v>       0.00000000       0.75000000       0.75000000 </v>
   <v>       0.50000000       0.00000000       0.00000000 </v>
   <v>       0.75000000       0.25000000       0.00000000 </v>
   <v>       0.75000000       0.00000000       0.25000000 </v>
   <v>       0.50000000       0.25000000       0.25000000 </v>
   <v>       0.50000000       0.00000000       0.50000000 </v>
   <v>       0.75000000       0.25000000       0.50000000 </v>
   <v>       0.75000000       0.00000000       0.75000000 </v>
   <v>       0.50000000       0.25000000       0.75000000 </v>
   <v>       0.50000000       0.50000000       0.00000000 </v>
   <v>       0.75000000       0.75000000       0.00000000 </v>
   <v>       0.75000000       0.50000000       0.25000000 </v>
   <v>       0.50000000       0.75000000       0.25000000 </v>
   <v>       0.50000000       0.50000000       0.50000000 </v>
   <v>       0.75000000       0.75000000       0.50000000 </v>
   <v>       0.75000000       0.50000000       0.75000000 </v>
   <v>       0.50000000       0.75000000       0.75000000 </v>
   <v>       0.25267761       0.25000000       0.25000000 </v>
   <v>       0.00000000       0.00000000       0.25000000 </v>
   <v>       0.00000000       0.25000000       0.00000000 </v>
   <v>       0.25000000       0.00000000       0.00000000 </v>
   <v>       0.25000000       0.25000000       0.75000000 </v>
   <v>       0.00000000       0.00000000       0.75000000 </v>
   <v>       0.00000000       0.25000000       0.50000000 </v>
   <v>       0.25000000       0.00000000       0.50000000 </v>
   <v>       0.25000000       0.75000000       0.25000000 </v>
   <v>       0.00000000       0.50000000       0.25000000 </v>
   <v>       0.00000000       0.75000000       0.00000000 </v>
   <v>       0.25000000       0.50000000       0.00000000 </v>
   <v>       0.25000000       0.75000000       0.75000000 </v>
   <v>       0.00000000       0.50000000       0.75000000 </v>
   <v>       0.00000000       0.75000000       0.50000000 </v>
   <v>       0.25000000       0.50000000       0.50000000 </v>
   <v>       0.75000000       0.25000000       0.25000000 </v>
   <v>       0.50000000       0.00000000       0.25000000 </v>
   <v>       0.50000000       0.25000000       0.00000000 </v>
   <v>       0.75000000       0.00000000       0.00000000 </v>
   <v>       0.75000000       0.25000000       0.75000000 </v>
   <v>       0.50000000       0.00000000       0.75000000 </v>
   <v>       0.50000000       0.25000000       0.50000000 </v>
   <v>       0.75000000       0.00000000       0.50000000 </v>
   <v>       0.75000000       0.75000000       0.25000000 </v>
   <v>       0.50000000       0.50000000       0.25000000 </v>
   <v>       0.50000000       0.75000000       0.00000000 </v>
   <v>       0.75000000       0.50000000       0.00000000 </v>
   <v>       0.75000000       0.75000000       0.75000000 </v>
   <v>       0.50000000       0.50000000       0.75000000 </v>
   <v>       0.50000000       0.75000000       0.50000000 </v>
   <v>       0.75000000       0.50000000       0.50000000 </v>
  </varray>
 </structure>
 <calculation>
  <scstep>
   <time name="dav">    7.06    7.10</time>
   <time name="total">    7.14    7.18</time>
   <energy>
    <i name="alphaZ">    751.52672365 </i>
    <i name="ewald"> -22871.34213018 </i>
    <i name="hartreedc">  -8992.24452000 </i>
    <i name="XCdc">   1456.53426044 </i>
    <i name="pawpsdc">  26466.43774078 </i>
    <i name="pawaedc"> -29286.08056155 </i>
    <i name="eentropy">     -0.00293978 </i>
    <i name="bandstr">   -740.44996587 </i>
    <i name="atom">  37532.17946992 </i>
    <i name="e_fr_energy">   4316.55807742 </i>
    <i name="e_wo_entrp">   4316.56101720 </i>
    <i name="e_0_energy">   4316.55954731 </i>
   </energy>
  </scstep>
  <scstep>
   <time name="dav">    7.68    7.73</time>
   <time name="total">    7.68    7.73</time>
   <energy>
    <i name="e_fr_energy">    363.21034760 </i>
    <i name="e_wo_entrp">    363.21034760 </i>
    <i name="e_0_energy">    363.21034760 </i>
   </energy>
  </scstep>
  <scstep>
   <time name="dav">    8.25    8.30</time>
   <time name="total">    8.25    8.30</time>
   <energy>
    <i name="e_fr_energy">   -206.23508481 </i>
    <i name="e_wo_entrp">   -206.23508481 </i>
    <i name="e_0_energy">   -206.23508481 </i>
   </energy>
  </scstep>
  <scstep>
   <time name="dav">    8.21    8.26</time>
   <time name="total">    8.21    8.26</time>
   <energy>
    <i name="e_fr_energy">   -228.19442499 </i>
    <i name="e_wo_entrp">   -228.19442499 </i>
    <i name="e_0_energy">   -228.19442499 </i>
   </energy>
  </scstep>
  <scstep>
   <time name="dav">    8.36    8.41</time>
   <time name="total">    8.62    8.68</time>
   <energy>
    <i name="e_fr_energy">   -229.00382402 </i>
    <i name="e_wo_entrp">   -229.00382402 </i>
    <i name="e_0_energy">   -229.00382402 </i>
   </energy>
  </scstep>
  <scstep>
   <time name="dav">    8.42    8.47</time>
   <time name="total">    8.75    8.81</time>
   <energy>
    <i name="e_fr_energy">   -224.13838409 </i>
    <i name="e_wo_entrp">   -224.13838409 </i>
    <i name="e_0_energy">   -224.13838409 </i>
   </energy>
  </scstep>
  <scstep>
   <time name="dav">    9.15    9.20</time>
   <time name="total">    9.48    9.54</time>
   <energy>
    <i name="e_fr_energy">   -223.77737327 </i>
    <i name="e_wo_entrp">   -223.77737327 </i>
    <i name="e_0_energy">   -223.77737327 </i>
   </energy>
  </scstep>
  <scstep>
   <time name="dav">    7.90    7.94</time>
   <time name="total">    8.23    8.28</time>
   <energy>
    <i name="e_fr_energy">   -223.90263077 </i>
    <i name="e_wo_entrp">   -223.90263077 </i>
    <i name="e_0_energy">   -223.90263077 </i>
   </energy>
  </scstep>
  <scstep>
   <time name="dav">    8.42    8.47</time>
   <time name="total">    8.76    8.81</time>
   <energy>
    <i name="e_fr_energy">   -223.89709322 </i>
    <i name="e_wo_entrp">   -223.89709322 </i>
    <i name="e_0_energy">   -223.89709322 </i>
   </energy>
  </scstep>
  <scstep>
   <time name="dav">    7.97    8.01</time>
   <time name="total">    8.30    8.35</time>
   <energy>
    <i name="e_fr_energy">   -223.90136988 </i>
    <i name="e_wo_entrp">   -223.90136988 </i>
    <i name="e_0_energy">   -223.90136988 </i>
   </energy>
  </scstep>
  <scstep>
   <time name="dav">    8.67    8.72</time>
   <time name="total">    9.00    9.06</time>
   <energy>
    <i name="e_fr_energy">   -223.90065281 </i>
    <i name="e_wo_entrp">   -223.90065281 </i>
    <i name="e_0_energy">   -223.90065281 </i>
   </energy>
  </scstep>
  <scstep>
   <time name="dav">    8.73    8.78</time>
   <time name="total">    9.06    9.12</time>
   <energy>
    <i name="e_fr_energy">   -223.90061637 </i>
    <i name="e_wo_entrp">   -223.90061637 </i>
    <i name="e_0_energy">   -223.90061637 </i>
   </energy>
  </scstep>
  <scstep>
   <time name="dav">    8.21    8.26</time>
   <time name="total">    8.54    8.59</time>
   <energy>
    <i name="e_fr_energy">   -223.90061410 </i>
    <i name="e_wo_entrp">   -223.90061410 </i>
    <i name="e_0_energy">   -223.90061410 </i>
   </energy>
  </scstep>
  <scstep>
   <time name="dav">    8.06    8.11</time>
   <time name="total">    8.39    8.44</time>
   <energy>
    <i name="e_fr_energy">   -223.90061552 </i>
    <i name="e_wo_entrp">   -223.90061552 </i>
    <i name="e_0_energy">   -223.90061552 </i>
   </energy>
  </scstep>
  <scstep>
   <time name="dav">    8.21    8.26</time>
   <time name="total">    8.54    8.60</time>
   <energy>
    <i name="e_fr_energy">   -223.90061667 </i>
    <i name="e_wo_entrp">   -223.90061667 </i>
    <i name="e_0_energy">   -223.90061667 </i>
   </energy>
  </scstep>
  <scstep>
   <time name="dav">    8.33    8.38</time>
   <time name="total">    8.66    8.72</time>
   <energy>
    <i name="e_fr_energy">   -223.90061721 </i>
    <i name="e_wo_entrp">   -223.90061721 </i>
    <i name="e_0_energy">   -223.90061721 </i>
   </energy>
  </scstep>
  <scstep>
   <time name="dav">    6.05    6.08</time>
   <time name="total">    6.39    6.42</time>
   <energy>
    <i name="e_fr_energy">   -223.90061727 </i>
    <i name="e_wo_entrp">   -223.90061727 </i>
    <i name="e_0_energy">   -223.90061727 </i>
   </energy>
  </scstep>
  <scstep>
   <time name="dav">    6.10    6.13</time>
   <time name="total">    6.44    6.47</time>
   <energy>
    <i name="e_fr_energy">   -223.90061738 </i>
    <i name="e_wo_entrp">   -223.90061738 </i>
    <i name="e_0_energy">   -223.90061738 </i>
   </energy>
  </scstep>
  <scstep>
   <time name="dav">    5.40    5.43</time>
   <time name="total">    5.73    5.77</time>
   <energy>
    <i name="e_fr_energy">   -223.90061736 </i>
    <i name="e_wo_entrp">   -223.90061736 </i>
    <i name="e_0_energy">   -223.90061736 </i>
   </energy>
  </scstep>
  <scstep>
   <time name="dav">    5.51    5.54</time>
   <time name="total">    5.85    5.88</time>
   <energy>
    <i name="e_fr_energy">   -223.90061733 </i>
    <i name="e_wo_entrp">   -223.90061733 </i>
    <i name="e_0_energy">   -223.90061733 </i>
   </energy>
  </scstep>
  <scstep>
   <time name="dav">    5.46    5.49</time>
   <time name="total">    5.79    5.82</time>
   <energy>
    <i name="e_fr_energy">   -223.90061727 </i>
    <i name="e_wo_entrp">   -223.90061727 </i>
    <i name="e_0_energy">   -223.90061727 </i>
   </energy>
  </scstep>
  <scstep>
   <time name="dav">    5.35    5.38</time>
   <time name="total">    5.42    5.45</time>
   <energy>
    <i name="alphaZ">    751.52672365 </i>
    <i name="ewald"> -22871.34213018 </i>
    <i name="hartreedc">  -9078.16014482 </i>
    <i name="XCdc">   1472.51343063 </i>
    <i name="pawpsdc">  29498.29419622 </i>
    <i name="pawaedc"> -32317.65888260 </i>
    <i name="eentropy">     -0.00000000 </i>
    <i name="bandstr">  -5211.25328010 </i>
    <i name="atom">  37532.17946992 </i>
    <i name="e_fr_energy">   -223.90061727 </i>
    <i name="e_wo_entrp">   -223.90061727 </i>
    <i name="e_0_energy">   -223.90061727 </i>
   </energy>
  </scstep>
  <structure>
   <crystal>
    <varray name="basis" >
     <v>      11.20400236       0.00000000       0.00000000 </v>
     <v>       0.00000000      11.20400236       0.00000000 </v>
     <v>       0.00000000       0.00000000      11.20400236 </v>
    </varray>
    <i name="volume">   1406.43470641 </i>
    <varray name="rec_basis" >
     <v>       0.08925382       0.00000000       0.00000000 </v>
     <v>       0.00000000       0.08925382       0.00000000 </v>
     <v>       0.00000000       0.00000000       0.08925382 </v>
    </varray>
   </crystal>
   <varray name="positions" >
    <v>       0.00267761       0.00000000       0.00000000 </v>
    <v>       0.25000000       0.25000000       0.00000000 </v>
    <v>       0.25000000       0.00000000       0.25000000 </v>
    <v>       0.00000000       0.25000000       0.25000000 </v>
    <v>       0.00000000       0.00000000       0.50000000 </v>
    <v>       0.25000000       0.25000000       0.50000000 </v>
    <v>       0.25000000       0.00000000       0.75000000 </v>
    <v>       0.00000000       0.25000000       0.75000000 </v>
    <v>       0.00000000       0.50000000       0.00000000 </v>
    <v>       0.25000000       0.75000000       0.00000000 </v>
    <v>       0.25000000       0.50000000       0.25000000 </v>
    <v>       0.00000000       0.75000000       0.25000000 </v>
    <v>       0.00000000       0.50000000       0.50000000 </v>
    <v>       0.25000000       0.75000000       0.50000000 </v>
    <v>       0.25000000       0.50000000       0.75000000 </v>
    <v>       0.00000000       0.75000000       0.75000000 </v>
    <v>       0.50000000       0.00000000       0.00000000 </v>
    <v>       0.75000000       0.25000000       0.00000000 </v>
    <v>       0.75000000       0.00000000       0.25000000 </v>
    <v>       0.50000000       0.25000000       0.25000000 </v>
    <v>       0.50000000       0.00000000       0.50000000 </v>
    <v>       0.75000000       0.25000000       0.50000000 </v>
    <v>       0.75000000       0.00000000       0.75000000 </v>
    <v>       0.50000000       0.25000000       0.75000000 </v>
    <v>       0.50000000       0.50000000       0.00000000 </v>
    <v>       0.75000000       0.75000000       0.00000000 </v>
    <v>       0.75000000       0.50000000       0.25000000 </v>
    <v>       0.50000000       0.75000000       0.25000000 </v>
    <v>       0.50000000       0.50000000       0.50000000 </v>
    <v>       0.75000000       0.75000000       0.50000000 </v>
    <v>       0.75000000       0.50000000       0.75000000 </v>
    <v>       0.50000000       0.75000000       0.75000000 </v>
    <v>       0.25267761       0.25000000       0.25000000 </v>
    <v>       0.00000000       0.00000000       0.25000000 </v>
    <v>       0.00000000       0.25000000       0.00000000 </v>
    <v>       0.25000000       0.00000000       0.00000000 </v>
    <v>       0.25000000       0.25000000       0.75000000 </v>
    <v>       0.00000000       0.00000000       0.75000000 </v>
    <v>       0.00000000       0.25000000       0.50000000 </v>
    <v>       0.25000000       0.00000000       0.50000000 </v>
    <v>       0.25000000       0.75000000       0.25000000 </v>
    <v>       0.00000000       0.50000000       0.25000000 </v>
    <v>       0.00000000       0.75000000       0.00000000 </v>
    <v>       0.25000000       0.50000000       0.00000000 </v>
    <v>       0.25000000       0.75000000       0.75000000 </v>
    <v>       0.00000000       0.50000000       0.75000000 </v>
    <v>       0.00000000       0.75000000       0.50000000 </v>
    <v>       0.25000000       0.50000000       0.50000000 </v>
    <v>       0.75000000       0.25000000       0.25000000 </v>
    <v>       0.50000000       0.00000000       0.25000000 </v>
    <v>       0.50000000       0.25000000       0.00000000 </v>
    <v>       0.75000000       0.00000000       0.00000000 </v>
    <v>       0.75000000       0.25000000       0.75000000 </v>
    <v>       0.50000000       0.00000000       0.75000000 </v>
    <v>       0.50000000       0.25000000       0.50000000 </v>
    <v>       0.75000000       0.00000000       0.50000000 </v>
    <v>       0.75000000       0.75000000       0.25000000 </v>
    <v>       0.50000000       0.50000000       0.25000000 </v>
    <v>       0.50000000       0.75000000       0.00000000 </v>
    <v>       0.75000000       0.50000000       0.00000000 </v>
    <v>       0.75000000       0.75000000       0.75000000 </v>
    <v>       0.50000000       0.50000000       0.75000000 </v>
    <v>       0.50000000       0.75000000       0.50000000 </v>
    <v>       0.75000000       0.50000000       0.50000000 </v>
   </varray>
  </structure>
  <varray name="forces" >
   <v>      -0.06303194      -0.00130653      -0.00130653 </v>
   <v>       0.00652861       0.00592703       0.00009241 </v>
   <v>       0.00652861       0.00009241       0.00592703 </v>
   <v>       0.01454500      -0.00001545      -0.00001545 </v>
   <v>      -0.00028758      -0.00128922       0.00129084 </v>
   <v>       0.00497504      -0.00007692      -0.00009387 </v>
   <v>       0.00212231       0.00000194      -0.00592708 </v>
   <v>      -0.00151379      -0.00001949       0.00001782 </v>
   <v>      -0.00028758       0.00129084      -0.00128922 </v>
   <v>       0.00212231      -0.00592708       0.00000194 </v>
   <v>       0.00497504      -0.00009387      -0.00007692 </v>
   <v>      -0.00151379       0.00001782      -0.00001949 </v>
   <v>      -0.00068949       0.00128923       0.00128923 </v>
   <v>       0.00057526       0.00007731      -0.00000175 </v>
   <v>       0.00057526      -0.00000175       0.00007731 </v>
   <v>      -0.00166895       0.00001948       0.00001948 </v>
   <v>       0.00870249       0.00130226       0.00130226 </v>
   <v>      -0.00132862      -0.00580147       0.00000294 </v>
   <v>      -0.00132862       0.00000294      -0.00580147 </v>
   <v>       0.02144173       0.00000287       0.00000287 </v>
   <v>       0.00009696       0.00129793      -0.00129882 </v>
   <v>      -0.00285535       0.00007342      -0.00000286 </v>
   <v>       0.00083774       0.00000280       0.00580165 </v>
   <v>       0.00133147       0.00000459      -0.00000364 </v>
   <v>       0.00009696      -0.00129882       0.00129793 </v>
   <v>       0.00083774       0.00580165       0.00000280 </v>
   <v>      -0.00285535      -0.00000286       0.00007342 </v>
   <v>       0.00133147      -0.00000364       0.00000459 </v>
   <v>       0.00022909      -0.00129788      -0.00129788 </v>
   <v>      -0.00069154      -0.00007337      -0.00000275 </v>
   <v>      -0.00069154      -0.00000275      -0.00007337 </v>
   <v>       0.00117011      -0.00000457      -0.00000457 </v>
   <v>      -0.07629065      -0.00130288      -0.00130288 </v>
   <v>       0.00886158       0.00574331      -0.00013041 </v>
   <v>       0.00886158      -0.00013041       0.00574331 </v>
   <v>       0.01789190       0.00003697       0.00003697 </v>
   <v>      -0.00176840      -0.00130628       0.00130578 </v>
   <v>       0.00496306       0.00056718       0.00012315 </v>
   <v>       0.00445738       0.00000885      -0.00573250 </v>
   <v>      -0.00216699       0.00003006      -0.00002953 </v>
   <v>      -0.00176840       0.00130578      -0.00130628 </v>
   <v>       0.00445738      -0.00573250       0.00000885 </v>
   <v>       0.00496306       0.00012315       0.00056718 </v>
   <v>      -0.00216699      -0.00002953       0.00003006 </v>
   <v>      -0.00073905       0.00130636       0.00130636 </v>
   <v>       0.00056076      -0.00056754      -0.00000930 </v>
   <v>       0.00056076      -0.00000930      -0.00056754 </v>
   <v>      -0.00233748      -0.00002968      -0.00002968 </v>
   <v>       0.00360179       0.00128371       0.00128371 </v>
   <v>       0.00108219      -0.00588566      -0.00001004 </v>
   <v>       0.00108219      -0.00001004      -0.00588566 </v>
   <v>       0.01772502      -0.00000499      -0.00000499 </v>
   <v>       0.00171862       0.00128350      -0.00128294 </v>
   <v>      -0.00288961      -0.00057521       0.00001192 </v>
   <v>       0.00324401      -0.00000019       0.00588133 </v>
   <v>       0.00168683      -0.00000328       0.00000322 </v>
   <v>       0.00171862      -0.00128294       0.00128350 </v>
   <v>       0.00324401       0.00588133      -0.00000019 </v>
   <v>      -0.00288961       0.00001192      -0.00057521 </v>
   <v>       0.00168683       0.00000322      -0.00000328 </v>
   <v>       0.00028642      -0.00128352      -0.00128352 </v>
   <v>      -0.00072515       0.00057509       0.00000043 </v>
   <v>      -0.00072515       0.00000043       0.00057509 </v>
   <v>       0.00153445       0.00000425       0.00000425 </v>
  </varray>
  <varray name="stress" >
   <v>      -0.35556955      -0.00014634      -0.00014634 </v>
   <v>      -0.00014639      -0.37842894      -0.00007471 </v>
   <v>      -0.00014639      -0.00007471      -0.37842894 </v>
  </varray>
  <energy>
   <i name="e_fr_energy">   -223.90061727 </i>
   <i name="e_wo_entrp">   -223.90061727 </i>
   <i name="e_0_energy">   -223.90061727 </i>
  </energy>
  <time name="totalsc">  182.69  183.77</time>
  <eigenvalues>
   <array>
    <dimension dim="1">band</dimension>
    <dimension dim="2">kpoint</dimension>
    <dimension dim="3">spin</dimension>
    <field>eigene</field>
    <field>occ</field>
    <set>
     <set comment="spin 1">
      <set comment="kpoint 1">
       <r>  -21.3091    1.0000 </r>
       <r>  -21.3090    1.0000 </r>
       <r>  -21.3087    1.0000 </r>
       <r>  -21.3047    1.0000 </r>
       <r>  -21.3013    1.0000 </r>
       <r>  -21.3001    1.0000 </r>
       <r>  -21.3001    1.0000 </r>
       <r>  -21.2950    1.0000 </r>
       <r>  -21.2946    1.0000 </r>
       <r>  -21.2943    1.0000 </r>
       <r>  -21.2940    1.0000 </r>
       <r>  -21.2940    1.0000 </r>
       <r>  -21.2939    1.0000 </r>
       <r>  -21.2932    1.0000 </r>
       <r>  -21.2932    1.0000 </r>
       <r>  -21.2927    1.0000 </r>
       <r>  -21.2919    1.0000 </r>
       <r>  -21.2916    1.0000 </r>
       <r>  -21.2913    1.0000 </r>
       <r>  -21.2905    1.0000 </r>
       <r>  -21.2905    1.0000 </r>
       <r>  -21.2887    1.0000 </r>
       <r>  -21.2878    1.0000 </r>
       <r>  -21.2877    1.0000 </r>
       <r>  -21.2867    1.0000 </r>
       <r>  -21.2865    1.0000 </r>
       <r>  -21.2863    1.0000 </r>
       <r>  -21.2861    1.0000 </r>
       <r>  -21.2857    1.0000 </r>
       <r>  -21.2850    1.0000 </r>
       <r>  -21.2849    1.0000 </r>
       <r>  -21.2839    1.0000 </r>
       <r>  -21.2838    1.0000 </r>
       <r>  -21.2837    1.0000 </r>
       <r>  -21.2834    1.0000 </r>
       <r>  -21.2834    1.0000 </r>
       <r>  -21.2831    1.0000 </r>
       <r>  -21.2830    1.0000 </r>
       <r>  -21.2828    1.0000 </r>
       <r>  -21.2827    1.0000 </r>
       <r>  -21.2821    1.0000 </r>
       <r>  -21.2819    1.0000 </r>
       <r>  -21.2819    1.0000 </r>
       <r>  -21.2814    1.0000 </r>
       <r>  -21.2813    1.0000 </r>
       <r>  -21.2811    1.0000 </r>
       <r>  -21.2809    1.0000 </r>
       <r>  -21.2804    1.0000 </r>
       <r>  -21.2804    1.0000 </r>
       <r>  -21.2803    1.0000 </r>
       <r>  -21.2800    1.0000 </r>
       <r>  -21.2799    1.0000 </r>
       <r>  -21.2799    1.0000 </r>
       <r>  -21.2789    1.0000 </r>
       <r>  -21.2788    1.0000 </r>
       <r>  -21.2780    1.0000 </r>
       <r>  -21.2778    1.0000 </r>
       <r>  -21.2768    1.0000 </r>
       <r>  -21.2766    1.0000 </r>
       <r>  -21.2765    1.0000 </r>
       <r>  -21.2762    1.0000 </r>
       <r>  -21.2759    1.0000 </r>
       <r>  -21.2758    1.0000 </r>
       <r>  -21.2756    1.0000 </r>
       <r>  -21.2753    1.0000 </r>
       <r>  -21.2752    1.0000 </r>
       <r>  -21.2752    1.0000 </r>
       <r>  -21.2751    1.0000 </r>
       <r>  -21.2748    1.0000 </r>
       <r>  -21.2745    1.0000 </r>
       <r>  -21.2744    1.0000 </r>
       <r>  -21.2734    1.0000 </r>
       <r>  -21.2732    1.0000 </r>
       <r>  -21.2725    1.0000 </r>
       <r>  -21.2725    1.0000 </r>
       <r>  -21.2716    1.0000 </r>
       <r>  -21.2715    1.0000 </r>
       <r>  -21.2714    1.0000 </r>
       <r>  -21.2713    1.0000 </r>
       <r>  -21.2712    1.0000 </r>
       <r>  -21.2710    1.0000 </r>
       <r>  -21.2707    1.0000 </r>
       <r>  -21.2706    1.0000 </r>
       <r>  -21.2703    1.0000 </r>
       <r>  -21.2701    1.0000 </r>
       <r>  -21.2699    1.0000 </r>
       <r>  -21.2696    1.0000 </r>
       <r>  -21.2693    1.0000 </r>
       <r>  -21.2685    1.0000 </r>
       <r>  -21.2678    1.0000 </r>
       <r>  -21.2676    1.0000 </r>
       <r>  -21.2675    1.0000 </r>
       <r>  -21.2673    1.0000 </r>
       <r>  -21.2557    1.0000 </r>
       <r>  -21.2556    1.0000 </r>
       <r>  -21.2554    1.0000 </r>
       <r>  -13.3581    1.0000 </r>
       <r>  -13.1426    1.0000 </r>
       <r>  -13.1386    1.0000 </r>
       <r>  -13.1374    1.0000 </r>
       <r>  -13.1374    1.0000 </r>
       <r>  -13.1361    1.0000 </r>
       <r>  -13.1335    1.0000 </r>
       <r>  -13.0215    1.0000 </r>
       <r>  -13.0145    1.0000 </r>
       <r>  -13.0145    1.0000 </r>
       <r>  -13.0129    1.0000 </r>
       <r>  -13.0114    1.0000 </r>
       <r>  -13.0113    1.0000 </r>
       <r>  -13.0112    1.0000 </r>
       <r>  -13.0111    1.0000 </r>
       <r>  -13.0097    1.0000 </r>
       <r>  -13.0087    1.0000 </r>
       <r>  -13.0087    1.0000 </r>
       <r>  -13.0044    1.0000 </r>
       <r>  -12.9896    1.0000 </r>
       <r>  -12.9892    1.0000 </r>
       <r>  -12.9891    1.0000 </r>
       <r>  -12.9885    1.0000 </r>
       <r>  -12.9416    1.0000 </r>
       <r>  -12.9411    1.0000 </r>
       <r>  -12.9402    1.0000 </r>
       <r>  -12.9244    1.0000 </r>
       <r>  -12.9230    1.0000 </r>
       <r>  -12.9213    1.0000 </r>
       <r>  -12.9212    1.0000 </r>
       <r>  -12.9188    1.0000 </r>
       <r>  -12.9151    1.0000 </r>
       <r>   -2.7000    1.0000 </r>
       <r>   -2.7000    1.0000 </r>
       <r>   -2.7000    1.0000 </r>
       <r>   -2.6999    1.0000 </r>
       <r>   -2.4240    1.0000 </r>
       <r>   -2.4240    1.0000 </r>
       <r>   -2.4240    1.0000 </r>
       <r>   -2.2076    1.0000 </r>
       <r>   -2.2074    1.0000 </r>
       <r>   -2.2051    1.0000 </r>
       <r>   -2.2051    1.0000 </r>
       <r>   -2.2047    1.0000 </r>
       <r>   -2.2045    1.0000 </r>
       <r>   -2.2042    1.0000 </r>
       <r>   -2.2039    1.0000 </r>
       <r>   -2.2034    1.0000 </r>
       <r>   -2.2033    1.0000 </r>
       <r>   -2.2013    1.0000 </r>
       <r>   -2.2011    1.0000 </r>
       <r>   -1.9282    1.0000 </r>
       <r>   -1.9281    1.0000 </r>
       <r>   -1.9259    1.0000 </r>
       <r>   -1.9259    1.0000 </r>
       <r>   -1.9253    1.0000 </r>
       <r>   -1.9253    1.0000 </r>
       <r>   -1.9240    1.0000 </r>
       <r>   -1.9240    1.0000 </r>
       <r>   -1.9235    1.0000 </r>
       <r>   -1.9235    1.0000 </r>
       <r>   -1.9213    1.0000 </r>
       <r>   -1.9213    1.0000 </r>
       <r>   -1.7977    1.0000 </r>
       <r>   -1.7967    1.0000 </r>
       <r>   -1.7966    1.0000 </r>
       <r>   -1.7966    1.0000 </r>
       <r>   -1.7965    1.0000 </r>
       <r>   -1.7955    1.0000 </r>
       <r>   -1.5086    1.0000 </r>
       <r>   -1.5086    1.0000 </r>
       <r>   -1.5062    1.0000 </r>
       <r>   -1.5059    1.0000 </r>
       <r>   -1.5058    1.0000 </r>
       <r>   -1.5057    1.0000 </r>
       <r>   -1.5057    1.0000 </r>
       <r>   -1.5052    1.0000 </r>
       <r>   -1.5046    1.0000 </r>
       <r>   -1.5046    1.0000 </r>
       <r>   -1.5022    1.0000 </r>
       <r>   -1.5021    1.0000 </r>
       <r>   -1.4644    1.0000 </r>
       <r>   -1.4636    1.0000 </r>
       <r>   -1.4627    1.0000 </r>
       <r>   -1.4626    1.0000 </r>
       <r>   -1.4620    1.0000 </r>
       <r>   -1.4605    1.0000 </r>
       <r>   -1.2948    1.0000 </r>
       <r>   -1.2948    1.0000 </r>
       <r>   -1.2946    1.0000 </r>
       <r>   -1.2946    1.0000 </r>
       <r>   -1.2946    1.0000 </r>
       <r>   -1.2946    1.0000 </r>
       <r>   -1.0045    1.0000 </r>
       <r>   -1.0043    1.0000 </r>
       <r>   -1.0033    1.0000 </r>
       <r>   -1.0031    1.0000 </r>
       <r>   -1.0024    1.0000 </r>
       <r>   -1.0010    1.0000 </r>
       <r>   -1.0009    1.0000 </r>
       <r>   -1.0006    1.0000 </r>
       <r>   -0.9986    1.0000 </r>
       <r>   -0.9986    1.0000 </r>
       <r>   -0.9975    1.0000 </r>
       <r>   -0.9974    1.0000 </r>
       <r>   -0.9528    1.0000 </r>
       <r>   -0.9526    1.0000 </r>
       <r>   -0.9523    1.0000 </r>
       <r>   -0.9512    1.0000 </r>
       <r>   -0.9492    1.0000 </r>
       <r>   -0.9480    1.0000 </r>
       <r>   -0.9476    1.0000 </r>
       <r>   -0.9475    1.0000 </r>
       <r>   -0.9473    1.0000 </r>
       <r>   -0.9472    1.0000 </r>
       <r>   -0.9470    1.0000 </r>
       <r>   -0.9468    1.0000 </r>
       <r>   -0.9457    1.0000 </r>
       <r>   -0.9455    1.0000 </r>
       <r>   -0.9446    1.0000 </r>
       <r>   -0.9441    1.0000 </r>
       <r>   -0.9425    1.0000 </r>
       <r>   -0.9417    1.0000 </r>
       <r>   -0.9409    1.0000 </r>
       <r>   -0.9408    1.0000 </r>
       <r>   -0.6649    1.0000 </r>
       <r>   -0.6648    1.0000 </r>
       <r>   -0.6648    1.0000 </r>
       <r>    4.3403    0.0000 </r>
       <r>    6.3609    0.0000 </r>
       <r>    6.3656    0.0000 </r>
       <r>    6.3680    0.0000 </r>
       <r>    6.3682    0.0000 </r>
       <r>    6.3705    0.0000 </r>
       <r>    6.3750    0.0000 </r>
       <r>    6.4446    0.0000 </r>
       <r>    6.4446    0.0000 </r>
       <r>    6.4448    0.0000 </r>
       <r>    6.4449    0.0000 </r>
       <r>    6.8279    0.0000 </r>
       <r>    6.8280    0.0000 </r>
       <r>    6.8281    0.0000 </r>
       <r>    7.2067    0.0000 </r>
       <r>    7.2068    0.0000 </r>
       <r>    7.2069    0.0000 </r>
       <r>    7.4534    0.0000 </r>
       <r>    7.4582    0.0000 </r>
       <r>    7.4590    0.0000 </r>
       <r>    7.4621    0.0000 </r>
       <r>    7.4630    0.0000 </r>
       <r>    7.4642    0.0000 </r>
       <r>    7.4642    0.0000 </r>
       <r>    7.4654    0.0000 </r>
       <r>    7.4663    0.0000 </r>
       <r>    7.4694    0.0000 </r>
       <r>    7.4702    0.0000 </r>
       <r>    7.4744    0.0000 </r>
       <r>    8.1628    0.0000 </r>
       <r>    8.1665    0.0000 </r>
       <r>    8.1681    0.0000 </r>
       <r>    8.1684    0.0000 </r>
       <r>    8.1701    0.0000 </r>
       <r>    8.1740    0.0000 </r>
       <r>    8.2773    0.0000 </r>
       <r>    8.2781    0.0000 </r>
       <r>    8.2795    0.0000 </r>
       <r>    8.2797    0.0000 </r>
       <r>    8.2810    0.0000 </r>
       <r>    8.2819    0.0000 </r>
       <r>    8.8862    0.0000 </r>
       <r>    8.8908    0.0000 </r>
       <r>    8.8968    0.0000 </r>
       <r>    8.8976    0.0000 </r>
       <r>    8.8997    0.0000 </r>
       <r>    8.9007    0.0000 </r>
       <r>    8.9013    0.0000 </r>
       <r>    8.9021    0.0000 </r>
       <r>    8.9030    0.0000 </r>
       <r>    8.9041    0.0000 </r>
       <r>    8.9062    0.0000 </r>
       <r>    8.9085    0.0000 </r>
       <r>    8.9112    0.0000 </r>
       <r>    8.9130    0.0000 </r>
       <r>    8.9150    0.0000 </r>
       <r>    8.9155    0.0000 </r>
       <r>    8.9164    0.0000 </r>
       <r>    8.9173    0.0000 </r>
       <r>    8.9185    0.0000 </r>
       <r>    8.9193    0.0000 </r>
       <r>    8.9195    0.0000 </r>
       <r>    8.9270    0.0000 </r>
       <r>    8.9289    0.0000 </r>
      </set>
      <set comment="kpoint 2">
       <r>  -21.3084    1.0000 </r>
       <r>  -21.3084    1.0000 </r>
       <r>  -21.3079    1.0000 </r>
       <r>  -21.3026    1.0000 </r>
       <r>  -21.3004    1.0000 </r>
       <r>  -21.2981    1.0000 </r>
       <r>  -21.2981    1.0000 </r>
       <r>  -21.2968    1.0000 </r>
       <r>  -21.2963    1.0000 </r>
       <r>  -21.2963    1.0000 </r>
       <r>  -21.2959    1.0000 </r>
       <r>  -21.2937    1.0000 </r>
       <r>  -21.2935    1.0000 </r>
       <r>  -21.2929    1.0000 </r>
       <r>  -21.2927    1.0000 </r>
       <r>  -21.2927    1.0000 </r>
       <r>  -21.2924    1.0000 </r>
       <r>  -21.2921    1.0000 </r>
       <r>  -21.2917    1.0000 </r>
       <r>  -21.2910    1.0000 </r>
       <r>  -21.2909    1.0000 </r>
       <r>  -21.2895    1.0000 </r>
       <r>  -21.2889    1.0000 </r>
       <r>  -21.2887    1.0000 </r>
       <r>  -21.2883    1.0000 </r>
       <r>  -21.2878    1.0000 </r>
       <r>  -21.2878    1.0000 </r>
       <r>  -21.2875    1.0000 </r>
       <r>  -21.2869    1.0000 </r>
       <r>  -21.2868    1.0000 </r>
       <r>  -21.2867    1.0000 </r>
       <r>  -21.2866    1.0000 </r>
       <r>  -21.2861    1.0000 </r>
       <r>  -21.2855    1.0000 </r>
       <r>  -21.2845    1.0000 </r>
       <r>  -21.2843    1.0000 </r>
       <r>  -21.2840    1.0000 </r>
       <r>  -21.2833    1.0000 </r>
       <r>  -21.2830    1.0000 </r>
       <r>  -21.2829    1.0000 </r>
       <r>  -21.2815    1.0000 </r>
       <r>  -21.2815    1.0000 </r>
       <r>  -21.2804    1.0000 </r>
       <r>  -21.2804    1.0000 </r>
       <r>  -21.2800    1.0000 </r>
       <r>  -21.2793    1.0000 </r>
       <r>  -21.2787    1.0000 </r>
       <r>  -21.2784    1.0000 </r>
       <r>  -21.2782    1.0000 </r>
       <r>  -21.2779    1.0000 </r>
       <r>  -21.2777    1.0000 </r>
       <r>  -21.2776    1.0000 </r>
       <r>  -21.2774    1.0000 </r>
       <r>  -21.2771    1.0000 </r>
       <r>  -21.2770    1.0000 </r>
       <r>  -21.2769    1.0000 </r>
       <r>  -21.2768    1.0000 </r>
       <r>  -21.2766    1.0000 </r>
       <r>  -21.2766    1.0000 </r>
       <r>  -21.2763    1.0000 </r>
       <r>  -21.2759    1.0000 </r>
       <r>  -21.2759    1.0000 </r>
       <r>  -21.2755    1.0000 </r>
       <r>  -21.2754    1.0000 </r>
       <r>  -21.2753    1.0000 </r>
       <r>  -21.2752    1.0000 </r>
       <r>  -21.2749    1.0000 </r>
       <r>  -21.2748    1.0000 </r>
       <r>  -21.2745    1.0000 </r>
       <r>  -21.2745    1.0000 </r>
       <r>  -21.2744    1.0000 </r>
       <r>  -21.2733    1.0000 </r>
       <r>  -21.2733    1.0000 </r>
       <r>  -21.2732    1.0000 </r>
       <r>  -21.2731    1.0000 </r>
       <r>  -21.2727    1.0000 </r>
       <r>  -21.2724    1.0000 </r>
       <r>  -21.2723    1.0000 </r>
       <r>  -21.2723    1.0000 </r>
       <r>  -21.2720    1.0000 </r>
       <r>  -21.2718    1.0000 </r>
       <r>  -21.2712    1.0000 </r>
       <r>  -21.2710    1.0000 </r>
       <r>  -21.2703    1.0000 </r>
       <r>  -21.2703    1.0000 </r>
       <r>  -21.2699    1.0000 </r>
       <r>  -21.2699    1.0000 </r>
       <r>  -21.2697    1.0000 </r>
       <r>  -21.2695    1.0000 </r>
       <r>  -21.2679    1.0000 </r>
       <r>  -21.2678    1.0000 </r>
       <r>  -21.2677    1.0000 </r>
       <r>  -21.2674    1.0000 </r>
       <r>  -21.2558    1.0000 </r>
       <r>  -21.2556    1.0000 </r>
       <r>  -21.2555    1.0000 </r>
       <r>  -13.2944    1.0000 </r>
       <r>  -13.2882    1.0000 </r>
       <r>  -13.1050    1.0000 </r>
       <r>  -13.0995    1.0000 </r>
       <r>  -13.0992    1.0000 </r>
       <r>  -13.0987    1.0000 </r>
       <r>  -13.0951    1.0000 </r>
       <r>  -13.0946    1.0000 </r>
       <r>  -13.0943    1.0000 </r>
       <r>  -13.0906    1.0000 </r>
       <r>  -13.0093    1.0000 </r>
       <r>  -13.0050    1.0000 </r>
       <r>  -13.0050    1.0000 </r>
       <r>  -13.0034    1.0000 </r>
       <r>  -12.9986    1.0000 </r>
       <r>  -12.9978    1.0000 </r>
       <r>  -12.9962    1.0000 </r>
       <r>  -12.9962    1.0000 </r>
       <r>  -12.9953    1.0000 </r>
       <r>  -12.9902    1.0000 </r>
       <r>  -12.9506    1.0000 </r>
       <r>  -12.9467    1.0000 </r>
       <r>  -12.9467    1.0000 </r>
       <r>  -12.9459    1.0000 </r>
       <r>  -12.9415    1.0000 </r>
       <r>  -12.9414    1.0000 </r>
       <r>  -12.9404    1.0000 </r>
       <r>  -12.9377    1.0000 </r>
       <r>  -12.9351    1.0000 </r>
       <r>  -12.9346    1.0000 </r>
       <r>  -12.9264    1.0000 </r>
       <r>  -12.9236    1.0000 </r>
       <r>   -2.5081    1.0000 </r>
       <r>   -2.5081    1.0000 </r>
       <r>   -2.5081    1.0000 </r>
       <r>   -2.5067    1.0000 </r>
       <r>   -2.5019    1.0000 </r>
       <r>   -2.5007    1.0000 </r>
       <r>   -2.5007    1.0000 </r>
       <r>   -2.5007    1.0000 </r>
       <r>   -2.2905    1.0000 </r>
       <r>   -2.2905    1.0000 </r>
       <r>   -2.2849    1.0000 </r>
       <r>   -2.2848    1.0000 </r>
       <r>   -2.2775    1.0000 </r>
       <r>   -2.2709    1.0000 </r>
       <r>   -2.1417    1.0000 </r>
       <r>   -2.1391    1.0000 </r>
       <r>   -2.1371    1.0000 </r>
       <r>   -2.1370    1.0000 </r>
       <r>   -2.1358    1.0000 </r>
       <r>   -2.1358    1.0000 </r>
       <r>   -2.1336    1.0000 </r>
       <r>   -2.1313    1.0000 </r>
       <r>   -1.9881    1.0000 </r>
       <r>   -1.9880    1.0000 </r>
       <r>   -1.9867    1.0000 </r>
       <r>   -1.9864    1.0000 </r>
       <r>   -1.9842    1.0000 </r>
       <r>   -1.9842    1.0000 </r>
       <r>   -1.9829    1.0000 </r>
       <r>   -1.9828    1.0000 </r>
       <r>   -1.8128    1.0000 </r>
       <r>   -1.8127    1.0000 </r>
       <r>   -1.8107    1.0000 </r>
       <r>   -1.8103    1.0000 </r>
       <r>   -1.8072    1.0000 </r>
       <r>   -1.8068    1.0000 </r>
       <r>   -1.8048    1.0000 </r>
       <r>   -1.8047    1.0000 </r>
       <r>   -1.5016    1.0000 </r>
       <r>   -1.5016    1.0000 </r>
       <r>   -1.4938    1.0000 </r>
       <r>   -1.4938    1.0000 </r>
       <r>   -1.3860    1.0000 </r>
       <r>   -1.3844    1.0000 </r>
       <r>   -1.3763    1.0000 </r>
       <r>   -1.3752    1.0000 </r>
       <r>   -1.2155    1.0000 </r>
       <r>   -1.2155    1.0000 </r>
       <r>   -1.2096    1.0000 </r>
       <r>   -1.2096    1.0000 </r>
       <r>   -1.1960    1.0000 </r>
       <r>   -1.1932    1.0000 </r>
       <r>   -1.1931    1.0000 </r>
       <r>   -1.1916    1.0000 </r>
       <r>   -1.1909    1.0000 </r>
       <r>   -1.1907    1.0000 </r>
       <r>   -1.1890    1.0000 </r>
       <r>   -1.1877    1.0000 </r>
       <r>   -1.1799    1.0000 </r>
       <r>   -1.1784    1.0000 </r>
       <r>   -1.1783    1.0000 </r>
       <r>   -1.1762    1.0000 </r>
       <r>   -1.1709    1.0000 </r>
       <r>   -1.1703    1.0000 </r>
       <r>   -1.1703    1.0000 </r>
       <r>   -1.1676    1.0000 </r>
       <r>   -1.1636    1.0000 </r>
       <r>   -1.1635    1.0000 </r>
       <r>   -1.1630    1.0000 </r>
       <r>   -1.1629    1.0000 </r>
       <r>   -1.1556    1.0000 </r>
       <r>   -1.1553    1.0000 </r>
       <r>   -1.1550    1.0000 </r>
       <r>   -1.1549    1.0000 </r>
       <r>   -1.0866    1.0000 </r>
       <r>   -1.0797    1.0000 </r>
       <r>   -0.9518    1.0000 </r>
       <r>   -0.9518    1.0000 </r>
       <r>   -0.9515    1.0000 </r>
       <r>   -0.9510    1.0000 </r>
       <r>   -0.9426    1.0000 </r>
       <r>   -0.9423    1.0000 </r>
       <r>   -0.9422    1.0000 </r>
       <r>   -0.9421    1.0000 </r>
       <r>   -0.9384    1.0000 </r>
       <r>   -0.9340    1.0000 </r>
       <r>   -0.9340    1.0000 </r>
       <r>   -0.9331    1.0000 </r>
       <r>   -0.9313    1.0000 </r>
       <r>   -0.9307    1.0000 </r>
       <r>   -0.9304    1.0000 </r>
       <r>   -0.9257    1.0000 </r>
       <r>   -0.7720    1.0000 </r>
       <r>   -0.7720    1.0000 </r>
       <r>   -0.7645    1.0000 </r>
       <r>   -0.7645    1.0000 </r>
       <r>    5.0183    0.0000 </r>
       <r>    5.0264    0.0000 </r>
       <r>    6.7095    0.0000 </r>
       <r>    6.7134    0.0000 </r>
       <r>    6.7144    0.0000 </r>
       <r>    6.7161    0.0000 </r>
       <r>    6.7206    0.0000 </r>
       <r>    6.7220    0.0000 </r>
       <r>    6.7228    0.0000 </r>
       <r>    6.7263    0.0000 </r>
       <r>    6.8384    0.0000 </r>
       <r>    6.8384    0.0000 </r>
       <r>    6.8388    0.0000 </r>
       <r>    6.8403    0.0000 </r>
       <r>    6.8462    0.0000 </r>
       <r>    6.8473    0.0000 </r>
       <r>    6.8483    0.0000 </r>
       <r>    6.8483    0.0000 </r>
       <r>    6.9680    0.0000 </r>
       <r>    6.9745    0.0000 </r>
       <r>    7.3562    0.0000 </r>
       <r>    7.3591    0.0000 </r>
       <r>    7.3660    0.0000 </r>
       <r>    7.3689    0.0000 </r>
       <r>    7.4771    0.0000 </r>
       <r>    7.4834    0.0000 </r>
       <r>    7.7099    0.0000 </r>
       <r>    7.7099    0.0000 </r>
       <r>    7.7193    0.0000 </r>
       <r>    7.7193    0.0000 </r>
       <r>    8.2555    0.0000 </r>
       <r>    8.2621    0.0000 </r>
       <r>    8.2635    0.0000 </r>
       <r>    8.2637    0.0000 </r>
       <r>    8.2680    0.0000 </r>
       <r>    8.2683    0.0000 </r>
       <r>    8.2694    0.0000 </r>
       <r>    8.2753    0.0000 </r>
       <r>    8.5272    0.0000 </r>
       <r>    8.5276    0.0000 </r>
       <r>    8.5310    0.0000 </r>
       <r>    8.5344    0.0000 </r>
       <r>    8.5351    0.0000 </r>
       <r>    8.5362    0.0000 </r>
       <r>    8.5381    0.0000 </r>
       <r>    8.5383    0.0000 </r>
       <r>    8.5404    0.0000 </r>
       <r>    8.5405    0.0000 </r>
       <r>    8.5408    0.0000 </r>
       <r>    8.5425    0.0000 </r>
       <r>    8.5427    0.0000 </r>
       <r>    8.5461    0.0000 </r>
       <r>    8.5478    0.0000 </r>
       <r>    8.5478    0.0000 </r>
       <r>    8.9448    0.0000 </r>
       <r>    8.9467    0.0000 </r>
       <r>    8.9480    0.0000 </r>
       <r>    8.9485    0.0000 </r>
       <r>    8.9533    0.0000 </r>
       <r>    8.9539    0.0000 </r>
       <r>    8.9554    0.0000 </r>
       <r>    8.9574    0.0000 </r>
       <r>    9.4875    0.0000 </r>
       <r>    9.5015    0.0000 </r>
      </set>
      <set comment="kpoint 3">
       <r>  -21.3082    1.0000 </r>
       <r>  -21.3079    1.0000 </r>
       <r>  -21.3077    1.0000 </r>
       <r>  -21.3011    1.0000 </r>
       <r>  -21.3002    1.0000 </r>
       <r>  -21.2999    1.0000 </r>
       <r>  -21.2999    1.0000 </r>
       <r>  -21.2998    1.0000 </r>
       <r>  -21.2971    1.0000 </r>
       <r>  -21.2968    1.0000 </r>
       <r>  -21.2948    1.0000 </r>
       <r>  -21.2939    1.0000 </r>
       <r>  -21.2931    1.0000 </r>
       <r>  -21.2924    1.0000 </r>
       <r>  -21.2924    1.0000 </r>
       <r>  -21.2921    1.0000 </r>
       <r>  -21.2911    1.0000 </r>
       <r>  -21.2908    1.0000 </r>
       <r>  -21.2907    1.0000 </r>
       <r>  -21.2905    1.0000 </r>
       <r>  -21.2904    1.0000 </r>
       <r>  -21.2898    1.0000 </r>
       <r>  -21.2897    1.0000 </r>
       <r>  -21.2887    1.0000 </r>
       <r>  -21.2885    1.0000 </r>
       <r>  -21.2884    1.0000 </r>
       <r>  -21.2881    1.0000 </r>
       <r>  -21.2877    1.0000 </r>
       <r>  -21.2870    1.0000 </r>
       <r>  -21.2864    1.0000 </r>
       <r>  -21.2862    1.0000 </r>
       <r>  -21.2850    1.0000 </r>
       <r>  -21.2844    1.0000 </r>
       <r>  -21.2842    1.0000 </r>
       <r>  -21.2841    1.0000 </r>
       <r>  -21.2840    1.0000 </r>
       <r>  -21.2838    1.0000 </r>
       <r>  -21.2837    1.0000 </r>
       <r>  -21.2828    1.0000 </r>
       <r>  -21.2825    1.0000 </r>
       <r>  -21.2824    1.0000 </r>
       <r>  -21.2813    1.0000 </r>
       <r>  -21.2812    1.0000 </r>
       <r>  -21.2810    1.0000 </r>
       <r>  -21.2806    1.0000 </r>
       <r>  -21.2804    1.0000 </r>
       <r>  -21.2801    1.0000 </r>
       <r>  -21.2795    1.0000 </r>
       <r>  -21.2792    1.0000 </r>
       <r>  -21.2791    1.0000 </r>
       <r>  -21.2782    1.0000 </r>
       <r>  -21.2779    1.0000 </r>
       <r>  -21.2778    1.0000 </r>
       <r>  -21.2777    1.0000 </r>
       <r>  -21.2772    1.0000 </r>
       <r>  -21.2770    1.0000 </r>
       <r>  -21.2770    1.0000 </r>
       <r>  -21.2767    1.0000 </r>
       <r>  -21.2766    1.0000 </r>
       <r>  -21.2765    1.0000 </r>
       <r>  -21.2764    1.0000 </r>
       <r>  -21.2762    1.0000 </r>
       <r>  -21.2758    1.0000 </r>
       <r>  -21.2756    1.0000 </r>
       <r>  -21.2755    1.0000 </r>
       <r>  -21.2752    1.0000 </r>
       <r>  -21.2748    1.0000 </r>
       <r>  -21.2745    1.0000 </r>
       <r>  -21.2745    1.0000 </r>
       <r>  -21.2736    1.0000 </r>
       <r>  -21.2735    1.0000 </r>
       <r>  -21.2731    1.0000 </r>
       <r>  -21.2729    1.0000 </r>
       <r>  -21.2727    1.0000 </r>
       <r>  -21.2724    1.0000 </r>
       <r>  -21.2723    1.0000 </r>
       <r>  -21.2721    1.0000 </r>
       <r>  -21.2717    1.0000 </r>
       <r>  -21.2716    1.0000 </r>
       <r>  -21.2713    1.0000 </r>
       <r>  -21.2710    1.0000 </r>
       <r>  -21.2708    1.0000 </r>
       <r>  -21.2707    1.0000 </r>
       <r>  -21.2705    1.0000 </r>
       <r>  -21.2702    1.0000 </r>
       <r>  -21.2700    1.0000 </r>
       <r>  -21.2698    1.0000 </r>
       <r>  -21.2694    1.0000 </r>
       <r>  -21.2689    1.0000 </r>
       <r>  -21.2687    1.0000 </r>
       <r>  -21.2686    1.0000 </r>
       <r>  -21.2683    1.0000 </r>
       <r>  -21.2681    1.0000 </r>
       <r>  -21.2558    1.0000 </r>
       <r>  -21.2557    1.0000 </r>
       <r>  -21.2554    1.0000 </r>
       <r>  -13.2916    1.0000 </r>
       <r>  -13.2912    1.0000 </r>
       <r>  -13.1042    1.0000 </r>
       <r>  -13.0984    1.0000 </r>
       <r>  -13.0978    1.0000 </r>
       <r>  -13.0970    1.0000 </r>
       <r>  -13.0969    1.0000 </r>
       <r>  -13.0961    1.0000 </r>
       <r>  -13.0954    1.0000 </r>
       <r>  -13.0914    1.0000 </r>
       <r>  -13.0063    1.0000 </r>
       <r>  -13.0019    1.0000 </r>
       <r>  -13.0011    1.0000 </r>
       <r>  -13.0007    1.0000 </r>
       <r>  -13.0006    1.0000 </r>
       <r>  -13.0006    1.0000 </r>
       <r>  -13.0005    1.0000 </r>
       <r>  -12.9999    1.0000 </r>
       <r>  -12.9952    1.0000 </r>
       <r>  -12.9920    1.0000 </r>
       <r>  -12.9498    1.0000 </r>
       <r>  -12.9456    1.0000 </r>
       <r>  -12.9452    1.0000 </r>
       <r>  -12.9438    1.0000 </r>
       <r>  -12.9435    1.0000 </r>
       <r>  -12.9426    1.0000 </r>
       <r>  -12.9423    1.0000 </r>
       <r>  -12.9387    1.0000 </r>
       <r>  -12.9311    1.0000 </r>
       <r>  -12.9308    1.0000 </r>
       <r>  -12.9297    1.0000 </r>
       <r>  -12.9257    1.0000 </r>
       <r>   -2.5052    1.0000 </r>
       <r>   -2.5050    1.0000 </r>
       <r>   -2.5048    1.0000 </r>
       <r>   -2.5046    1.0000 </r>
       <r>   -2.5043    1.0000 </r>
       <r>   -2.5038    1.0000 </r>
       <r>   -2.5038    1.0000 </r>
       <r>   -2.5037    1.0000 </r>
       <r>   -2.2878    1.0000 </r>
       <r>   -2.2877    1.0000 </r>
       <r>   -2.2876    1.0000 </r>
       <r>   -2.2876    1.0000 </r>
       <r>   -2.2743    1.0000 </r>
       <r>   -2.2741    1.0000 </r>
       <r>   -2.1408    1.0000 </r>
       <r>   -2.1376    1.0000 </r>
       <r>   -2.1365    1.0000 </r>
       <r>   -2.1364    1.0000 </r>
       <r>   -2.1364    1.0000 </r>
       <r>   -2.1363    1.0000 </r>
       <r>   -2.1352    1.0000 </r>
       <r>   -2.1320    1.0000 </r>
       <r>   -1.9867    1.0000 </r>
       <r>   -1.9867    1.0000 </r>
       <r>   -1.9861    1.0000 </r>
       <r>   -1.9859    1.0000 </r>
       <r>   -1.9852    1.0000 </r>
       <r>   -1.9850    1.0000 </r>
       <r>   -1.9841    1.0000 </r>
       <r>   -1.9841    1.0000 </r>
       <r>   -1.8122    1.0000 </r>
       <r>   -1.8096    1.0000 </r>
       <r>   -1.8088    1.0000 </r>
       <r>   -1.8088    1.0000 </r>
       <r>   -1.8087    1.0000 </r>
       <r>   -1.8085    1.0000 </r>
       <r>   -1.8078    1.0000 </r>
       <r>   -1.8053    1.0000 </r>
       <r>   -1.4979    1.0000 </r>
       <r>   -1.4978    1.0000 </r>
       <r>   -1.4978    1.0000 </r>
       <r>   -1.4977    1.0000 </r>
       <r>   -1.3808    1.0000 </r>
       <r>   -1.3804    1.0000 </r>
       <r>   -1.3804    1.0000 </r>
       <r>   -1.3803    1.0000 </r>
       <r>   -1.2142    1.0000 </r>
       <r>   -1.2127    1.0000 </r>
       <r>   -1.2126    1.0000 </r>
       <r>   -1.2123    1.0000 </r>
       <r>   -1.1934    1.0000 </r>
       <r>   -1.1927    1.0000 </r>
       <r>   -1.1921    1.0000 </r>
       <r>   -1.1914    1.0000 </r>
       <r>   -1.1911    1.0000 </r>
       <r>   -1.1906    1.0000 </r>
       <r>   -1.1900    1.0000 </r>
       <r>   -1.1895    1.0000 </r>
       <r>   -1.1770    1.0000 </r>
       <r>   -1.1752    1.0000 </r>
       <r>   -1.1744    1.0000 </r>
       <r>   -1.1742    1.0000 </r>
       <r>   -1.1740    1.0000 </r>
       <r>   -1.1738    1.0000 </r>
       <r>   -1.1728    1.0000 </r>
       <r>   -1.1716    1.0000 </r>
       <r>   -1.1620    1.0000 </r>
       <r>   -1.1602    1.0000 </r>
       <r>   -1.1596    1.0000 </r>
       <r>   -1.1593    1.0000 </r>
       <r>   -1.1593    1.0000 </r>
       <r>   -1.1586    1.0000 </r>
       <r>   -1.1580    1.0000 </r>
       <r>   -1.1561    1.0000 </r>
       <r>   -1.0833    1.0000 </r>
       <r>   -1.0831    1.0000 </r>
       <r>   -0.9481    1.0000 </r>
       <r>   -0.9472    1.0000 </r>
       <r>   -0.9470    1.0000 </r>
       <r>   -0.9469    1.0000 </r>
       <r>   -0.9468    1.0000 </r>
       <r>   -0.9467    1.0000 </r>
       <r>   -0.9464    1.0000 </r>
       <r>   -0.9459    1.0000 </r>
       <r>   -0.9368    1.0000 </r>
       <r>   -0.9345    1.0000 </r>
       <r>   -0.9335    1.0000 </r>
       <r>   -0.9324    1.0000 </r>
       <r>   -0.9322    1.0000 </r>
       <r>   -0.9306    1.0000 </r>
       <r>   -0.9299    1.0000 </r>
       <r>   -0.9275    1.0000 </r>
       <r>   -0.7683    1.0000 </r>
       <r>   -0.7683    1.0000 </r>
       <r>   -0.7681    1.0000 </r>
       <r>   -0.7679    1.0000 </r>
       <r>    5.0223    0.0000 </r>
       <r>    5.0224    0.0000 </r>
       <r>    6.7088    0.0000 </r>
       <r>    6.7147    0.0000 </r>
       <r>    6.7166    0.0000 </r>
       <r>    6.7178    0.0000 </r>
       <r>    6.7187    0.0000 </r>
       <r>    6.7199    0.0000 </r>
       <r>    6.7216    0.0000 </r>
       <r>    6.7266    0.0000 </r>
       <r>    6.8394    0.0000 </r>
       <r>    6.8402    0.0000 </r>
       <r>    6.8419    0.0000 </r>
       <r>    6.8431    0.0000 </r>
       <r>    6.8433    0.0000 </r>
       <r>    6.8446    0.0000 </r>
       <r>    6.8468    0.0000 </r>
       <r>    6.8472    0.0000 </r>
       <r>    6.9711    0.0000 </r>
       <r>    6.9712    0.0000 </r>
       <r>    7.3625    0.0000 </r>
       <r>    7.3625    0.0000 </r>
       <r>    7.3626    0.0000 </r>
       <r>    7.3627    0.0000 </r>
       <r>    7.4802    0.0000 </r>
       <r>    7.4803    0.0000 </r>
       <r>    7.7145    0.0000 </r>
       <r>    7.7146    0.0000 </r>
       <r>    7.7146    0.0000 </r>
       <r>    7.7146    0.0000 </r>
       <r>    8.2582    0.0000 </r>
       <r>    8.2628    0.0000 </r>
       <r>    8.2649    0.0000 </r>
       <r>    8.2658    0.0000 </r>
       <r>    8.2661    0.0000 </r>
       <r>    8.2669    0.0000 </r>
       <r>    8.2689    0.0000 </r>
       <r>    8.2735    0.0000 </r>
       <r>    8.5280    0.0000 </r>
       <r>    8.5313    0.0000 </r>
       <r>    8.5335    0.0000 </r>
       <r>    8.5363    0.0000 </r>
       <r>    8.5365    0.0000 </r>
       <r>    8.5372    0.0000 </r>
       <r>    8.5379    0.0000 </r>
       <r>    8.5382    0.0000 </r>
       <r>    8.5386    0.0000 </r>
       <r>    8.5389    0.0000 </r>
       <r>    8.5400    0.0000 </r>
       <r>    8.5403    0.0000 </r>
       <r>    8.5412    0.0000 </r>
       <r>    8.5433    0.0000 </r>
       <r>    8.5460    0.0000 </r>
       <r>    8.5487    0.0000 </r>
       <r>    8.9400    0.0000 </r>
       <r>    8.9464    0.0000 </r>
       <r>    8.9505    0.0000 </r>
       <r>    8.9505    0.0000 </r>
       <r>    8.9513    0.0000 </r>
       <r>    8.9513    0.0000 </r>
       <r>    8.9553    0.0000 </r>
       <r>    8.9620    0.0000 </r>
       <r>    9.4894    0.0000 </r>
       <r>    9.5152    0.0000 </r>
      </set>
      <set comment="kpoint 4">
       <r>  -21.3079    1.0000 </r>
       <r>  -21.3077    1.0000 </r>
       <r>  -21.3074    1.0000 </r>
       <r>  -21.2999    1.0000 </r>
       <r>  -21.2987    1.0000 </r>
       <r>  -21.2982    1.0000 </r>
       <r>  -21.2979    1.0000 </r>
       <r>  -21.2978    1.0000 </r>
       <r>  -21.2965    1.0000 </r>
       <r>  -21.2956    1.0000 </r>
       <r>  -21.2949    1.0000 </r>
       <r>  -21.2941    1.0000 </r>
       <r>  -21.2937    1.0000 </r>
       <r>  -21.2936    1.0000 </r>
       <r>  -21.2934    1.0000 </r>
       <r>  -21.2933    1.0000 </r>
       <r>  -21.2931    1.0000 </r>
       <r>  -21.2925    1.0000 </r>
       <r>  -21.2924    1.0000 </r>
       <r>  -21.2918    1.0000 </r>
       <r>  -21.2916    1.0000 </r>
       <r>  -21.2914    1.0000 </r>
       <r>  -21.2912    1.0000 </r>
       <r>  -21.2905    1.0000 </r>
       <r>  -21.2904    1.0000 </r>
       <r>  -21.2898    1.0000 </r>
       <r>  -21.2882    1.0000 </r>
       <r>  -21.2879    1.0000 </r>
       <r>  -21.2873    1.0000 </r>
       <r>  -21.2869    1.0000 </r>
       <r>  -21.2865    1.0000 </r>
       <r>  -21.2858    1.0000 </r>
       <r>  -21.2844    1.0000 </r>
       <r>  -21.2841    1.0000 </r>
       <r>  -21.2836    1.0000 </r>
       <r>  -21.2822    1.0000 </r>
       <r>  -21.2818    1.0000 </r>
[...]
      </set>
     </set>
    </set>
   </array>
  </eigenvalues>
  <separator name="orbital magnetization" >
   <v name="MAGDIPOLOUT">      0.00000000      0.00000000      0.00000000</v>
  </separator>
  <dos>
   <i name="efermi">     -0.55663097 </i>
   <total>
    <array>
     <dimension dim="1">gridpoints</dimension>
     <dimension dim="2">spin</dimension>
     <field>energy</field>
     <field>total</field>
     <field>integrated</field>
     <set>
      <set comment="spin 1">
       <r>   -22.8503     0.0000     0.0000 </r>
       <r>   -22.7373     0.0000     0.0000 </r>
       <r>   -22.6243     0.0000     0.0000 </r>
       <r>   -22.5113     0.0000     0.0000 </r>
       <r>   -22.3983     0.0000     0.0000 </r>
       <r>   -22.2852     0.0000     0.0000 </r>
       <r>   -22.1722     0.0000     0.0000 </r>
       <r>   -22.0592     0.0000     0.0000 </r>
       <r>   -21.9462     0.0000     0.0000 </r>
       <r>   -21.8331     0.0000     0.0000 </r>
       <r>   -21.7201     0.0000     0.0000 </r>
       <r>   -21.6071     0.0000     0.0000 </r>
       <r>   -21.4941     0.0000     0.0000 </r>
       <r>   -21.3811     0.0000     0.0000 </r>
       <r>   -21.2680  1304.8843   147.4815 </r>
       <r>   -21.1550   393.8906   192.0000 </r>
       <r>   -21.0420     0.0000   192.0000 </r>
       <r>   -20.9290     0.0000   192.0000 </r>
       <r>   -20.8159     0.0000   192.0000 </r>
       <r>   -20.7029     0.0000   192.0000 </r>
       <r>   -20.5899     0.0000   192.0000 </r>
       <r>   -20.4769     0.0000   192.0000 </r>
       <r>   -20.3638     0.0000   192.0000 </r>
       <r>   -20.2508     0.0000   192.0000 </r>
       <r>   -20.1378     0.0000   192.0000 </r>
       <r>   -20.0248     0.0000   192.0000 </r>
       <r>   -19.9118     0.0000   192.0000 </r>
       <r>   -19.7987     0.0000   192.0000 </r>
       <r>   -19.6857     0.0000   192.0000 </r>
       <r>   -19.5727     0.0000   192.0000 </r>
       <r>   -19.4597     0.0000   192.0000 </r>
       <r>   -19.3466     0.0000   192.0000 </r>
       <r>   -19.2336     0.0000   192.0000 </r>
       <r>   -19.1206     0.0000   192.0000 </r>
       <r>   -19.0076     0.0000   192.0000 </r>
       <r>   -18.8946     0.0000   192.0000 </r>
       <r>   -18.7815     0.0000   192.0000 </r>
       <r>   -18.6685     0.0000   192.0000 </r>
       <r>   -18.5555     0.0000   192.0000 </r>
       <r>   -18.4425     0.0000   192.0000 </r>
       <r>   -18.3294     0.0000   192.0000 </r>
       <r>   -18.2164     0.0000   192.0000 </r>
       <r>   -18.1034     0.0000   192.0000 </r>
       <r>   -17.9904     0.0000   192.0000 </r>
       <r>   -17.8773     0.0000   192.0000 </r>
       <r>   -17.7643     0.0000   192.0000 </r>
       <r>   -17.6513     0.0000   192.0000 </r>
       <r>   -17.5383     0.0000   192.0000 </r>
       <r>   -17.4253     0.0000   192.0000 </r>
       <r>   -17.3122     0.0000   192.0000 </r>
       <r>   -17.1992     0.0000   192.0000 </r>
       <r>   -17.0862     0.0000   192.0000 </r>
       <r>   -16.9732     0.0000   192.0000 </r>
       <r>   -16.8601     0.0000   192.0000 </r>
       <r>   -16.7471     0.0000   192.0000 </r>
       <r>   -16.6341     0.0000   192.0000 </r>
       <r>   -16.5211     0.0000   192.0000 </r>
       <r>   -16.4081     0.0000   192.0000 </r>
       <r>   -16.2950     0.0000   192.0000 </r>
       <r>   -16.1820     0.0000   192.0000 </r>
       <r>   -16.0690     0.0000   192.0000 </r>
       <r>   -15.9560     0.0000   192.0000 </r>
       <r>   -15.8429     0.0000   192.0000 </r>
       <r>   -15.7299     0.0000   192.0000 </r>
       <r>   -15.6169     0.0000   192.0000 </r>
       <r>   -15.5039     0.0000   192.0000 </r>
       <r>   -15.3909     0.0000   192.0000 </r>
       <r>   -15.2778     0.0000   192.0000 </r>
       <r>   -15.1648     0.0000   192.0000 </r>
       <r>   -15.0518     0.0000   192.0000 </r>
       <r>   -14.9388     0.0000   192.0000 </r>
       <r>   -14.8257     0.0000   192.0000 </r>
       <r>   -14.7127     0.0000   192.0000 </r>
       <r>   -14.5997     0.0000   192.0000 </r>
       <r>   -14.4867     0.0000   192.0000 </r>
       <r>   -14.3736     0.0000   192.0000 </r>
       <r>   -14.2606     0.0000   192.0000 </r>
       <r>   -14.1476     0.0000   192.0000 </r>
       <r>   -14.0346     0.0000   192.0000 </r>
       <r>   -13.9216     0.0000   192.0000 </r>
       <r>   -13.8085     0.0000   192.0000 </r>
       <r>   -13.6955     0.0000   192.0000 </r>
       <r>   -13.5825     0.0000   192.0000 </r>
       <r>   -13.4695     0.0000   192.0000 </r>
       <r>   -13.3564     1.2082   192.1366 </r>
       <r>   -13.2434    19.8635   194.3816 </r>
       <r>   -13.1304    48.4270   199.8553 </r>
       <r>   -13.0174   127.0713   214.2175 </r>
       <r>   -12.9044   365.5312   255.5317 </r>
       <r>   -12.7913     4.1358   256.0000 </r>
       <r>   -12.6783     0.0000   256.0000 </r>
       <r>   -12.5653     0.0000   256.0000 </r>
       <r>   -12.4523     0.0000   256.0000 </r>
       <r>   -12.3392     0.0000   256.0000 </r>
       <r>   -12.2262     0.0000   256.0000 </r>
       <r>   -12.1132     0.0000   256.0000 </r>
       <r>   -12.0002     0.0000   256.0000 </r>
       <r>   -11.8871     0.0000   256.0000 </r>
       <r>   -11.7741     0.0000   256.0000 </r>
       <r>   -11.6611     0.0000   256.0000 </r>
       <r>   -11.5481     0.0000   256.0000 </r>
       <r>   -11.4351     0.0000   256.0000 </r>
       <r>   -11.3220     0.0000   256.0000 </r>
       <r>   -11.2090     0.0000   256.0000 </r>
       <r>   -11.0960     0.0000   256.0000 </r>
       <r>   -10.9830     0.0000   256.0000 </r>
       <r>   -10.8699     0.0000   256.0000 </r>
       <r>   -10.7569     0.0000   256.0000 </r>
       <r>   -10.6439     0.0000   256.0000 </r>
       <r>   -10.5309     0.0000   256.0000 </r>
       <r>   -10.4179     0.0000   256.0000 </r>
       <r>   -10.3048     0.0000   256.0000 </r>
       <r>   -10.1918     0.0000   256.0000 </r>
       <r>   -10.0788     0.0000   256.0000 </r>
       <r>    -9.9658     0.0000   256.0000 </r>
       <r>    -9.8527     0.0000   256.0000 </r>
       <r>    -9.7397     0.0000   256.0000 </r>
       <r>    -9.6267     0.0000   256.0000 </r>
       <r>    -9.5137     0.0000   256.0000 </r>
       <r>    -9.4007     0.0000   256.0000 </r>
       <r>    -9.2876     0.0000   256.0000 </r>
       <r>    -9.1746     0.0000   256.0000 </r>
       <r>    -9.0616     0.0000   256.0000 </r>
       <r>    -8.9486     0.0000   256.0000 </r>
       <r>    -8.8355     0.0000   256.0000 </r>
       <r>    -8.7225     0.0000   256.0000 </r>
       <r>    -8.6095     0.0000   256.0000 </r>
       <r>    -8.4965     0.0000   256.0000 </r>
       <r>    -8.3834     0.0000   256.0000 </r>
       <r>    -8.2704     0.0000   256.0000 </r>
       <r>    -8.1574     0.0000   256.0000 </r>
       <r>    -8.0444     0.0000   256.0000 </r>
       <r>    -7.9314     0.0000   256.0000 </r>
       <r>    -7.8183     0.0000   256.0000 </r>
       <r>    -7.7053     0.0000   256.0000 </r>
       <r>    -7.5923     0.0000   256.0000 </r>
       <r>    -7.4793     0.0000   256.0000 </r>
       <r>    -7.3662     0.0000   256.0000 </r>
       <r>    -7.2532     0.0000   256.0000 </r>
       <r>    -7.1402     0.0000   256.0000 </r>
       <r>    -7.0272     0.0000   256.0000 </r>
       <r>    -6.9142     0.0000   256.0000 </r>
       <r>    -6.8011     0.0000   256.0000 </r>
       <r>    -6.6881     0.0000   256.0000 </r>
       <r>    -6.5751     0.0000   256.0000 </r>
       <r>    -6.4621     0.0000   256.0000 </r>
       <r>    -6.3490     0.0000   256.0000 </r>
       <r>    -6.2360     0.0000   256.0000 </r>
       <r>    -6.1230     0.0000   256.0000 </r>
       <r>    -6.0100     0.0000   256.0000 </r>
       <r>    -5.8970     0.0000   256.0000 </r>
       <r>    -5.7839     0.0000   256.0000 </r>
       <r>    -5.6709     0.0000   256.0000 </r>
       <r>    -5.5579     0.0000   256.0000 </r>
       <r>    -5.4449     0.0000   256.0000 </r>
       <r>    -5.3318     0.0000   256.0000 </r>
       <r>    -5.2188     0.0000   256.0000 </r>
       <r>    -5.1058     0.0000   256.0000 </r>
       <r>    -4.9928     0.0000   256.0000 </r>
       <r>    -4.8797     0.0000   256.0000 </r>
       <r>    -4.7667     0.0000   256.0000 </r>
       <r>    -4.6537     0.0000   256.0000 </r>
       <r>    -4.5407     0.0000   256.0000 </r>
       <r>    -4.4277     0.0000   256.0000 </r>
       <r>    -4.3146     0.0000   256.0000 </r>
       <r>    -4.2016     0.0000   256.0000 </r>
       <r>    -4.0886     0.0000   256.0000 </r>
       <r>    -3.9756     0.0000   256.0000 </r>
       <r>    -3.8625     0.0000   256.0000 </r>
       <r>    -3.7495     0.0000   256.0000 </r>
       <r>    -3.6365     0.0000   256.0000 </r>
       <r>    -3.5235     0.0000   256.0000 </r>
       <r>    -3.4105     0.0000   256.0000 </r>
       <r>    -3.2974     0.0000   256.0000 </r>
       <r>    -3.1844     0.0000   256.0000 </r>
       <r>    -3.0714     0.0000   256.0000 </r>
       <r>    -2.9584     0.0000   256.0000 </r>
       <r>    -2.8453     0.0000   256.0000 </r>
       <r>    -2.7323     0.0989   256.0112 </r>
       <r>    -2.6193     8.7489   257.0000 </r>
       <r>    -2.5063    23.7557   259.6849 </r>
       <r>    -2.3932    84.5467   269.2406 </r>
       <r>    -2.2802    81.9088   278.4982 </r>
       <r>    -2.1672   154.8857   296.0045 </r>
       <r>    -2.0542    72.9542   304.2500 </r>
       <r>    -1.9412    56.3466   310.6184 </r>
       <r>    -1.8281    61.3772   317.5555 </r>
       <r>    -1.7151    72.5036   325.7500 </r>
       <r>    -1.6021     0.0000   325.7500 </r>
       <r>    -1.4891    68.8333   333.5297 </r>
       <r>    -1.3760   198.1637   355.9267 </r>
       <r>    -1.2630    25.1412   358.7682 </r>
       <r>    -1.1500   251.9828   387.2480 </r>
       <r>    -1.0370   137.8203   402.8248 </r>
       <r>    -0.9240   257.6025   431.9398 </r>
       <r>    -0.8109    63.6754   439.1378 </r>
       <r>    -0.6979    71.7854   447.2512 </r>
       <r>    -0.5849     6.6251   448.0000 </r>
       <r>    -0.4719     0.0000   448.0000 </r>
       <r>    -0.3588     0.0000   448.0000 </r>
       <r>    -0.2458     0.0000   448.0000 </r>
       <r>    -0.1328     0.0000   448.0000 </r>
       <r>    -0.0198     0.0000   448.0000 </r>
       <r>     0.0932     0.0000   448.0000 </r>
       <r>     0.2063     0.0000   448.0000 </r>
       <r>     0.3193     0.0000   448.0000 </r>
       <r>     0.4323     0.0000   448.0000 </r>
       <r>     0.5453     0.0000   448.0000 </r>
       <r>     0.6584     0.0000   448.0000 </r>
       <r>     0.7714     0.0000   448.0000 </r>
       <r>     0.8844     0.0000   448.0000 </r>
       <r>     0.9974     0.0000   448.0000 </r>
       <r>     1.1105     0.0000   448.0000 </r>
       <r>     1.2235     0.0000   448.0000 </r>
       <r>     1.3365     0.0000   448.0000 </r>
       <r>     1.4495     0.0000   448.0000 </r>
       <r>     1.5625     0.0000   448.0000 </r>
       <r>     1.6756     0.0000   448.0000 </r>
       <r>     1.7886     0.0000   448.0000 </r>
       <r>     1.9016     0.0000   448.0000 </r>
       <r>     2.0146     0.0000   448.0000 </r>
       <r>     2.1277     0.0000   448.0000 </r>
       <r>     2.2407     0.0000   448.0000 </r>
       <r>     2.3537     0.0000   448.0000 </r>
       <r>     2.4667     0.0000   448.0000 </r>
       <r>     2.5797     0.0000   448.0000 </r>
       <r>     2.6928     0.0000   448.0000 </r>
       <r>     2.8058     0.0000   448.0000 </r>
       <r>     2.9188     0.0000   448.0000 </r>
       <r>     3.0318     0.0000   448.0000 </r>
       <r>     3.1449     0.0000   448.0000 </r>
       <r>     3.2579     0.0000   448.0000 </r>
       <r>     3.3709     0.0000   448.0000 </r>
       <r>     3.4839     0.0000   448.0000 </r>
       <r>     3.5970     0.0000   448.0000 </r>
       <r>     3.7100     0.0000   448.0000 </r>
       <r>     3.8230     0.0000   448.0000 </r>
       <r>     3.9360     0.0000   448.0000 </r>
       <r>     4.0490     0.0000   448.0000 </r>
       <r>     4.1621     0.0000   448.0000 </r>
       <r>     4.2751     0.0000   448.0000 </r>
       <r>     4.3881     2.2111   448.2499 </r>
       <r>     4.5011     0.0000   448.2500 </r>
       <r>     4.6142     0.0000   448.2500 </r>
       <r>     4.7272     0.0000   448.2500 </r>
       <r>     4.8402     0.0000   448.2500 </r>
       <r>     4.9532     0.0000   448.2500 </r>
       <r>     5.0662    13.2572   449.7484 </r>
       <r>     5.1793     0.0137   449.7500 </r>
       <r>     5.2923     0.0000   449.7500 </r>
       <r>     5.4053     0.0000   449.7500 </r>
       <r>     5.5183     2.0023   449.9763 </r>
       <r>     5.6314    24.5411   452.7500 </r>
       <r>     5.7444     0.0000   452.7500 </r>
       <r>     5.8574    16.9473   454.6654 </r>
       <r>     5.9704     0.7483   454.7500 </r>
       <r>     6.0834     0.0000   454.7500 </r>
       <r>     6.1965     0.0000   454.7500 </r>
       <r>     6.3095     0.0005   454.7501 </r>
       <r>     6.4225    13.7846   456.3080 </r>
       <r>     6.5355     8.3330   457.2500 </r>
       <r>     6.6486    39.4034   461.7035 </r>
       <r>     6.7616    66.6740   469.2391 </r>
       <r>     6.8746    58.9887   475.9065 </r>
       <r>     6.9876    12.4495   477.3135 </r>
       <r>     7.1007     1.6497   477.5000 </r>
       <r>     7.2137     4.5545   478.0148 </r>
       <r>     7.3267     2.2548   478.2696 </r>
       <r>     7.4397    80.9408   487.4177 </r>
       <r>     7.5527   167.1506   506.3097 </r>
       <r>     7.6658     3.9052   506.7510 </r>
       <r>     7.7788    26.5340   509.7500 </r>
       <r>     7.8918     0.1237   509.7640 </r>
       <r>     8.0048    52.9630   515.7500 </r>
       <r>     8.1179     0.0034   515.7504 </r>
       <r>     8.2309    13.7764   517.3074 </r>
       <r>     8.3439    92.3744   527.7478 </r>
       <r>     8.4569     0.0169   527.7500 </r>
       <r>     8.5699   145.6760   544.2147 </r>
       <r>     8.6830    13.5841   545.7500 </r>
       <r>     8.7960     0.0000   545.7500 </r>
       <r>     8.9090    78.2132   554.5899 </r>
       <r>     9.0220   126.2647   568.8606 </r>
       <r>     9.1351     5.6569   569.5000 </r>
       <r>     9.2481    22.6006   572.0544 </r>
       <r>     9.3611    21.6383   574.5000 </r>
       <r>     9.4741     1.0713   574.6211 </r>
       <r>     9.5871    12.2004   576.0000 </r>
       <r>     9.7002     0.0000   576.0000 </r>
       <r>     9.8132     0.0000   576.0000 </r>
       <r>     9.9262     0.0000   576.0000 </r>
       <r>    10.0392     0.0000   576.0000 </r>
       <r>    10.1523     0.0000   576.0000 </r>
       <r>    10.2653     0.0000   576.0000 </r>
       <r>    10.3783     0.0000   576.0000 </r>
       <r>    10.4913     0.0000   576.0000 </r>
       <r>    10.6044     0.0000   576.0000 </r>
       <r>    10.7174     0.0000   576.0000 </r>
       <r>    10.8304     0.0000   576.0000 </r>
       <r>    10.9434     0.0000   576.0000 </r>
       <r>    11.0564     0.0000   576.0000 </r>
      </set>
     </set>
    </array>
   </total>
  </dos>
 </calculation>
 <structure name="finalpos" >
  <crystal>
   <varray name="basis" >
    <v>      11.20400236       0.00000000       0.00000000 </v>
    <v>       0.00000000      11.20400236       0.00000000 </v>
    <v>       0.00000000       0.00000000      11.20400236 </v>
   </varray>
   <i name="volume">   1406.43470641 </i>
   <varray name="rec_basis" >
    <v>       0.08925382       0.00000000       0.00000000 </v>
    <v>       0.00000000       0.08925382       0.00000000 </v>
    <v>       0.00000000       0.00000000       0.08925382 </v>
   </varray>
  </crystal>
  <varray name="positions" >
   <v>       0.00267761       0.00000000       0.00000000 </v>
   <v>       0.25000000       0.25000000       0.00000000 </v>
   <v>       0.25000000       0.00000000       0.25000000 </v>
   <v>       0.00000000       0.25000000       0.25000000 </v>
   <v>       0.00000000       0.00000000       0.50000000 </v>
   <v>       0.25000000       0.25000000       0.50000000 </v>
   <v>       0.25000000       0.00000000       0.75000000 </v>
   <v>       0.00000000       0.25000000       0.75000000 </v>
   <v>       0.00000000       0.50000000       0.00000000 </v>
   <v>       0.25000000       0.75000000       0.00000000 </v>
   <v>       0.25000000       0.50000000       0.25000000 </v>
   <v>       0.00000000       0.75000000       0.25000000 </v>
   <v>       0.00000000       0.50000000       0.50000000 </v>
   <v>       0.25000000       0.75000000       0.50000000 </v>
   <v>       0.25000000       0.50000000       0.75000000 </v>
   <v>       0.00000000       0.75000000       0.75000000 </v>
   <v>       0.50000000       0.00000000       0.00000000 </v>
   <v>       0.75000000       0.25000000       0.00000000 </v>
   <v>       0.75000000       0.00000000       0.25000000 </v>
   <v>       0.50000000       0.25000000       0.25000000 </v>
   <v>       0.50000000       0.00000000       0.50000000 </v>
   <v>       0.75000000       0.25000000       0.50000000 </v>
   <v>       0.75000000       0.00000000       0.75000000 </v>
   <v>       0.50000000       0.25000000       0.75000000 </v>
   <v>       0.50000000       0.50000000       0.00000000 </v>
   <v>       0.75000000       0.75000000       0.00000000 </v>
   <v>       0.75000000       0.50000000       0.25000000 </v>
   <v>       0.50000000       0.75000000       0.25000000 </v>
   <v>       0.50000000       0.50000000       0.50000000 </v>
   <v>       0.75000000       0.75000000       0.50000000 </v>
   <v>       0.75000000       0.50000000       0.75000000 </v>
   <v>       0.50000000       0.75000000       0.75000000 </v>
   <v>       0.25267761       0.25000000       0.25000000 </v>
   <v>       0.00000000       0.00000000       0.25000000 </v>
   <v>       0.00000000       0.25000000       0.00000000 </v>
   <v>       0.25000000       0.00000000       0.00000000 </v>
   <v>       0.25000000       0.25000000       0.75000000 </v>
   <v>       0.00000000       0.00000000       0.75000000 </v>
   <v>       0.00000000       0.25000000       0.50000000 </v>
   <v>       0.25000000       0.00000000       0.50000000 </v>
   <v>       0.25000000       0.75000000       0.25000000 </v>
   <v>       0.00000000       0.50000000       0.25000000 </v>
   <v>       0.00000000       0.75000000       0.00000000 </v>
   <v>       0.25000000       0.50000000       0.00000000 </v>
   <v>       0.25000000       0.75000000       0.75000000 </v>
   <v>       0.00000000       0.50000000       0.75000000 </v>
   <v>       0.00000000       0.75000000       0.50000000 </v>
   <v>       0.25000000       0.50000000       0.50000000 </v>
   <v>       0.75000000       0.25000000       0.25000000 </v>
   <v>       0.50000000       0.00000000       0.25000000 </v>
   <v>       0.50000000       0.25000000       0.00000000 </v>
   <v>       0.75000000       0.00000000       0.00000000 </v>
   <v>       0.75000000       0.25000000       0.75000000 </v>
   <v>       0.50000000       0.00000000       0.75000000 </v>
   <v>       0.50000000       0.25000000       0.50000000 </v>
   <v>       0.75000000       0.00000000       0.50000000 </v>
   <v>       0.75000000       0.75000000       0.25000000 </v>
   <v>       0.50000000       0.50000000       0.25000000 </v>
   <v>       0.50000000       0.75000000       0.00000000 </v>
   <v>       0.75000000       0.50000000       0.00000000 </v>
   <v>       0.75000000       0.75000000       0.75000000 </v>
   <v>       0.50000000       0.50000000       0.75000000 </v>
   <v>       0.50000000       0.75000000       0.50000000 </v>
   <v>       0.75000000       0.50000000       0.50000000 </v>
  </varray>
 </structure>
</modeling>
