  64  64   0   0
  0.2197554E+02  0.1120400E-08  0.1120400E-08  0.1120400E-08  0.5000000E-15
  1.000000000000000E-004
  CAR 
 unknown system                          
     11.06436341    -22.85070241  301     -0.55154663      1.00000000
    -22.851  0.0000E+00  0.0000E+00
    -22.738  0.0000E+00  0.0000E+00
    -22.625  0.0000E+00  0.0000E+00
    -22.512  0.0000E+00  0.0000E+00
    -22.399  0.0000E+00  0.0000E+00
    -22.285  0.0000E+00  0.0000E+00
    -22.172  0.0000E+00  0.0000E+00
    -22.059  0.0000E+00  0.0000E+00
    -21.946  0.0000E+00  0.0000E+00
    -21.833  0.0000E+00  0.0000E+00
    -21.720  0.0000E+00  0.0000E+00
    -21.607  0.0000E+00  0.0000E+00
    -21.494  0.0000E+00  0.0000E+00
    -21.381  0.6807E-05  0.7696E-06
    -21.268  0.1305E+04  0.1476E+03
    -21.155  0.3929E+03  0.1920E+03
    -21.042  0.0000E+00  0.1920E+03
    -20.929  0.0000E+00  0.1920E+03
    -20.816  0.0000E+00  0.1920E+03
    -20.703  0.0000E+00  0.1920E+03
    -20.590  0.0000E+00  0.1920E+03
    -20.477  0.0000E+00  0.1920E+03
    -20.364  0.0000E+00  0.1920E+03
    -20.251  0.0000E+00  0.1920E+03
    -20.137  0.0000E+00  0.1920E+03
    -20.024  0.0000E+00  0.1920E+03
    -19.911  0.0000E+00  0.1920E+03
    -19.798  0.0000E+00  0.1920E+03
    -19.685  0.0000E+00  0.1920E+03
    -19.572  0.0000E+00  0.1920E+03
    -19.459  0.0000E+00  0.1920E+03
    -19.346  0.0000E+00  0.1920E+03
    -19.233  0.0000E+00  0.1920E+03
    -19.120  0.0000E+00  0.1920E+03
    -19.007  0.0000E+00  0.1920E+03
    -18.894  0.0000E+00  0.1920E+03
    -18.781  0.0000E+00  0.1920E+03
    -18.668  0.0000E+00  0.1920E+03
    -18.555  0.0000E+00  0.1920E+03
    -18.442  0.0000E+00  0.1920E+03
    -18.329  0.0000E+00  0.1920E+03
    -18.216  0.0000E+00  0.1920E+03
    -18.103  0.0000E+00  0.1920E+03
    -17.990  0.0000E+00  0.1920E+03
    -17.876  0.0000E+00  0.1920E+03
    -17.763  0.0000E+00  0.1920E+03
    -17.650  0.0000E+00  0.1920E+03
    -17.537  0.0000E+00  0.1920E+03
    -17.424  0.0000E+00  0.1920E+03
    -17.311  0.0000E+00  0.1920E+03
    -17.198  0.0000E+00  0.1920E+03
    -17.085  0.0000E+00  0.1920E+03
    -16.972  0.0000E+00  0.1920E+03
    -16.859  0.0000E+00  0.1920E+03
    -16.746  0.0000E+00  0.1920E+03
    -16.633  0.0000E+00  0.1920E+03
    -16.520  0.0000E+00  0.1920E+03
    -16.407  0.0000E+00  0.1920E+03
    -16.294  0.0000E+00  0.1920E+03
    -16.181  0.0000E+00  0.1920E+03
    -16.068  0.0000E+00  0.1920E+03
    -15.955  0.0000E+00  0.1920E+03
    -15.842  0.0000E+00  0.1920E+03
    -15.729  0.0000E+00  0.1920E+03
    -15.615  0.0000E+00  0.1920E+03
    -15.502  0.0000E+00  0.1920E+03
    -15.389  0.0000E+00  0.1920E+03
    -15.276  0.0000E+00  0.1920E+03
    -15.163  0.0000E+00  0.1920E+03
    -15.050  0.0000E+00  0.1920E+03
    -14.937  0.0000E+00  0.1920E+03
    -14.824  0.0000E+00  0.1920E+03
    -14.711  0.0000E+00  0.1920E+03
    -14.598  0.0000E+00  0.1920E+03
    -14.485  0.0000E+00  0.1920E+03
    -14.372  0.0000E+00  0.1920E+03
    -14.259  0.0000E+00  0.1920E+03
    -14.146  0.0000E+00  0.1920E+03
    -14.033  0.0000E+00  0.1920E+03
    -13.920  0.0000E+00  0.1920E+03
    -13.807  0.0000E+00  0.1920E+03
    -13.694  0.0000E+00  0.1920E+03
    -13.581  0.0000E+00  0.1920E+03
    -13.468  0.1105E-13  0.1920E+03
    -13.354  0.1328E+01  0.1922E+03
    -13.241  0.2085E+02  0.1945E+03
    -13.128  0.4819E+02  0.2000E+03
    -13.015  0.1297E+03  0.2146E+03
    -12.902  0.3629E+03  0.2556E+03
    -12.789  0.3096E+01  0.2560E+03
    -12.676  0.0000E+00  0.2560E+03
    -12.563  0.0000E+00  0.2560E+03
    -12.450  0.0000E+00  0.2560E+03
    -12.337  0.0000E+00  0.2560E+03
    -12.224  0.0000E+00  0.2560E+03
    -12.111  0.0000E+00  0.2560E+03
    -11.998  0.0000E+00  0.2560E+03
    -11.885  0.0000E+00  0.2560E+03
    -11.772  0.0000E+00  0.2560E+03
    -11.659  0.0000E+00  0.2560E+03
    -11.546  0.0000E+00  0.2560E+03
    -11.433  0.0000E+00  0.2560E+03
    -11.320  0.0000E+00  0.2560E+03
    -11.207  0.0000E+00  0.2560E+03
    -11.093  0.0000E+00  0.2560E+03
    -10.980  0.0000E+00  0.2560E+03
    -10.867  0.0000E+00  0.2560E+03
    -10.754  0.0000E+00  0.2560E+03
    -10.641  0.0000E+00  0.2560E+03
    -10.528  0.0000E+00  0.2560E+03
    -10.415  0.0000E+00  0.2560E+03
    -10.302  0.0000E+00  0.2560E+03
    -10.189  0.0000E+00  0.2560E+03
    -10.076  0.0000E+00  0.2560E+03
     -9.963  0.0000E+00  0.2560E+03
     -9.850  0.0000E+00  0.2560E+03
     -9.737  0.0000E+00  0.2560E+03
     -9.624  0.0000E+00  0.2560E+03
     -9.511  0.0000E+00  0.2560E+03
     -9.398  0.0000E+00  0.2560E+03
     -9.285  0.0000E+00  0.2560E+03
     -9.172  0.0000E+00  0.2560E+03
     -9.059  0.0000E+00  0.2560E+03
     -8.946  0.0000E+00  0.2560E+03
     -8.832  0.0000E+00  0.2560E+03
     -8.719  0.0000E+00  0.2560E+03
     -8.606  0.0000E+00  0.2560E+03
     -8.493  0.0000E+00  0.2560E+03
     -8.380  0.0000E+00  0.2560E+03
     -8.267  0.0000E+00  0.2560E+03
     -8.154  0.0000E+00  0.2560E+03
     -8.041  0.0000E+00  0.2560E+03
     -7.928  0.0000E+00  0.2560E+03
     -7.815  0.0000E+00  0.2560E+03
     -7.702  0.0000E+00  0.2560E+03
     -7.589  0.0000E+00  0.2560E+03
     -7.476  0.0000E+00  0.2560E+03
     -7.363  0.0000E+00  0.2560E+03
     -7.250  0.0000E+00  0.2560E+03
     -7.137  0.0000E+00  0.2560E+03
     -7.024  0.0000E+00  0.2560E+03
     -6.911  0.0000E+00  0.2560E+03
     -6.798  0.0000E+00  0.2560E+03
     -6.685  0.0000E+00  0.2560E+03
     -6.571  0.0000E+00  0.2560E+03
     -6.458  0.0000E+00  0.2560E+03
     -6.345  0.0000E+00  0.2560E+03
     -6.232  0.0000E+00  0.2560E+03
     -6.119  0.0000E+00  0.2560E+03
     -6.006  0.0000E+00  0.2560E+03
     -5.893  0.0000E+00  0.2560E+03
     -5.780  0.0000E+00  0.2560E+03
     -5.667  0.0000E+00  0.2560E+03
     -5.554  0.0000E+00  0.2560E+03
     -5.441  0.0000E+00  0.2560E+03
     -5.328  0.0000E+00  0.2560E+03
     -5.215  0.0000E+00  0.2560E+03
     -5.102  0.0000E+00  0.2560E+03
     -4.989  0.0000E+00  0.2560E+03
     -4.876  0.0000E+00  0.2560E+03
     -4.763  0.0000E+00  0.2560E+03
     -4.650  0.0000E+00  0.2560E+03
     -4.537  0.0000E+00  0.2560E+03
     -4.424  0.0000E+00  0.2560E+03
     -4.310  0.0000E+00  0.2560E+03
     -4.197  0.0000E+00  0.2560E+03
     -4.084  0.0000E+00  0.2560E+03
     -3.971  0.0000E+00  0.2560E+03
     -3.858  0.0000E+00  0.2560E+03
     -3.745  0.0000E+00  0.2560E+03
     -3.632  0.0000E+00  0.2560E+03
     -3.519  0.0000E+00  0.2560E+03
     -3.406  0.0000E+00  0.2560E+03
     -3.293  0.0000E+00  0.2560E+03
     -3.180  0.0000E+00  0.2560E+03
     -3.067  0.0000E+00  0.2560E+03
     -2.954  0.0000E+00  0.2560E+03
     -2.841  0.0000E+00  0.2560E+03
     -2.728  0.2199E+00  0.2560E+03
     -2.615  0.8626E+01  0.2570E+03
     -2.502  0.3055E+02  0.2605E+03
     -2.389  0.7988E+02  0.2695E+03
     -2.276  0.8573E+02  0.2792E+03
     -2.163  0.1528E+03  0.2965E+03
     -2.049  0.6899E+02  0.3043E+03
     -1.936  0.5853E+02  0.3109E+03
     -1.823  0.6634E+02  0.3184E+03
     -1.710  0.6530E+02  0.3257E+03
     -1.597  0.1709E-08  0.3258E+03
     -1.484  0.8680E+02  0.3356E+03
     -1.371  0.1842E+03  0.3564E+03
     -1.258  0.2163E+02  0.3588E+03
     -1.145  0.2609E+03  0.3883E+03
     -1.032  0.1323E+03  0.4033E+03
     -0.919  0.2623E+03  0.4329E+03
     -0.806  0.5972E+02  0.4397E+03
     -0.693  0.6705E+02  0.4473E+03
     -0.580  0.6490E+01  0.4480E+03
     -0.467  0.0000E+00  0.4480E+03
     -0.354  0.0000E+00  0.4480E+03
     -0.241  0.0000E+00  0.4480E+03
     -0.128  0.0000E+00  0.4480E+03
     -0.015  0.0000E+00  0.4480E+03
      0.098  0.0000E+00  0.4480E+03
      0.212  0.0000E+00  0.4480E+03
      0.325  0.0000E+00  0.4480E+03
      0.438  0.0000E+00  0.4480E+03
      0.551  0.0000E+00  0.4480E+03
      0.664  0.0000E+00  0.4480E+03
      0.777  0.0000E+00  0.4480E+03
      0.890  0.0000E+00  0.4480E+03
      1.003  0.0000E+00  0.4480E+03
      1.116  0.0000E+00  0.4480E+03
      1.229  0.0000E+00  0.4480E+03
      1.342  0.0000E+00  0.4480E+03
      1.455  0.0000E+00  0.4480E+03
      1.568  0.0000E+00  0.4480E+03
      1.681  0.0000E+00  0.4480E+03
      1.794  0.0000E+00  0.4480E+03
      1.907  0.0000E+00  0.4480E+03
      2.020  0.0000E+00  0.4480E+03
      2.133  0.0000E+00  0.4480E+03
      2.246  0.0000E+00  0.4480E+03
      2.359  0.0000E+00  0.4480E+03
      2.473  0.0000E+00  0.4480E+03
      2.586  0.0000E+00  0.4480E+03
      2.699  0.0000E+00  0.4480E+03
      2.812  0.0000E+00  0.4480E+03
      2.925  0.0000E+00  0.4480E+03
      3.038  0.0000E+00  0.4480E+03
      3.151  0.0000E+00  0.4480E+03
      3.264  0.0000E+00  0.4480E+03
      3.377  0.0000E+00  0.4480E+03
      3.490  0.0000E+00  0.4480E+03
      3.603  0.0000E+00  0.4480E+03
      3.716  0.0000E+00  0.4480E+03
      3.829  0.0000E+00  0.4480E+03
      3.942  0.0000E+00  0.4480E+03
      4.055  0.0000E+00  0.4480E+03
      4.168  0.0000E+00  0.4480E+03
      4.281  0.3416E-04  0.4480E+03
      4.394  0.2211E+01  0.4482E+03
      4.507  0.0000E+00  0.4482E+03
      4.621  0.0000E+00  0.4482E+03
      4.734  0.0000E+00  0.4482E+03
      4.847  0.0000E+00  0.4482E+03
      4.960  0.8134E-04  0.4483E+03
      5.073  0.1327E+02  0.4497E+03
      5.186  0.1158E-02  0.4498E+03
      5.299  0.0000E+00  0.4498E+03
      5.412  0.0000E+00  0.4498E+03
      5.525  0.4281E+01  0.4502E+03
      5.638  0.2226E+02  0.4527E+03
      5.751  0.6297E-06  0.4528E+03
      5.864  0.1742E+02  0.4547E+03
      5.977  0.2666E+00  0.4548E+03
      6.090  0.0000E+00  0.4548E+03
      6.203  0.0000E+00  0.4548E+03
      6.316  0.2977E-02  0.4548E+03
      6.429  0.1448E+02  0.4564E+03
      6.542  0.7627E+01  0.4573E+03
      6.655  0.4609E+02  0.4625E+03
      6.768  0.6004E+02  0.4692E+03
      6.882  0.5949E+02  0.4760E+03
      6.995  0.1282E+02  0.4774E+03
      7.108  0.6718E+00  0.4775E+03
      7.221  0.5547E+01  0.4781E+03
      7.334  0.1694E+01  0.4783E+03
      7.447  0.8320E+02  0.4877E+03
      7.560  0.1669E+03  0.5066E+03
      7.673  0.1450E+01  0.5068E+03
      7.786  0.2649E+02  0.5097E+03
      7.899  0.4820E+00  0.5098E+03
      8.012  0.5259E+02  0.5157E+03
      8.125  0.1921E-01  0.5158E+03
      8.238  0.1488E+02  0.5174E+03
      8.351  0.9124E+02  0.5277E+03
      8.464  0.4600E-04  0.5278E+03
      8.577  0.1529E+03  0.5450E+03
      8.690  0.6282E+01  0.5458E+03
      8.803  0.7357E-05  0.5458E+03
      8.916  0.8733E+02  0.5556E+03
      9.029  0.1206E+03  0.5693E+03
      9.143  0.2141E+01  0.5695E+03
      9.256  0.2817E+02  0.5727E+03
      9.369  0.1605E+02  0.5745E+03
      9.482  0.1401E+01  0.5747E+03
      9.595  0.1187E+02  0.5760E+03
      9.708  0.0000E+00  0.5760E+03
      9.821  0.0000E+00  0.5760E+03
      9.934  0.0000E+00  0.5760E+03
     10.047  0.0000E+00  0.5760E+03
     10.160  0.0000E+00  0.5760E+03
     10.273  0.0000E+00  0.5760E+03
     10.386  0.0000E+00  0.5760E+03
     10.499  0.0000E+00  0.5760E+03
     10.612  0.0000E+00  0.5760E+03
     10.725  0.0000E+00  0.5760E+03
     10.838  0.0000E+00  0.5760E+03
     10.951  0.0000E+00  0.5760E+03
     11.064  0.0000E+00  0.5760E+03
