       N       E                     dE             d eps       ncg     rms          rms(c)
DAV:   1     0.431660888456E+04    0.43166E+04   -0.17183E+05  3456   0.125E+03
DAV:   2     0.363235320082E+03   -0.39534E+04   -0.37631E+04  3840   0.367E+02
DAV:   3    -0.206233141326E+03   -0.56947E+03   -0.56521E+03  4192   0.155E+02
DAV:   4    -0.228194391637E+03   -0.21961E+02   -0.21860E+02  4160   0.330E+01
DAV:   5    -0.229005393596E+03   -0.81100E+00   -0.80963E+00  4288   0.616E+00    0.106E+01
DAV:   6    -0.224137800681E+03    0.48676E+01   -0.94963E+00  4288   0.530E+00    0.776E+00
DAV:   7    -0.223777301797E+03    0.36050E+00   -0.20609E+00  4704   0.234E+00    0.534E+00
DAV:   8    -0.223902500445E+03   -0.12520E+00   -0.26660E-01  3968   0.124E+00    0.141E+00
DAV:   9    -0.223897052100E+03    0.54483E-02   -0.11427E-02  4256   0.262E-01    0.596E-01
DAV:  10    -0.223901357398E+03   -0.43053E-02   -0.17862E-02  3968   0.229E-01    0.281E-01
DAV:  11    -0.223900663723E+03    0.69367E-03   -0.15209E-03  4480   0.822E-02    0.855E-02
DAV:  12    -0.223900626533E+03    0.37190E-04   -0.14317E-04  4320   0.231E-02    0.151E-02
DAV:  13    -0.223900626964E+03   -0.43029E-06   -0.20604E-05  4256   0.783E-03    0.345E-03
DAV:  14    -0.223900628158E+03   -0.11938E-05   -0.20727E-06  4032   0.354E-03    0.850E-03
DAV:  15    -0.223900629375E+03   -0.12172E-05   -0.38345E-07  4096   0.157E-03    0.353E-03
DAV:  16    -0.223900629919E+03   -0.54451E-06   -0.15661E-07  4192   0.935E-04    0.505E-04
DAV:  17    -0.223900629917E+03    0.26557E-08   -0.70206E-09  2816   0.616E-04
   1 F= -.22390063E+03 E0= -.22390063E+03  d E =-.494866E-16
