 vasp.6.3.2 27Jun22 (build Oct 14 2022 12:13:54) complex                        
  
 executed on             LinuxIFC date 2025.08.28  22:00:50
 running on   32 total cores
 distrk:  each k-point on   32 cores,    1 groups
 distr:  one band on NCORE=   1 cores,   32 groups


--------------------------------------------------------------------------------------------------------


 INCAR:
   ENCUT = 341.213600
   SIGMA = 0.020000
   EDIFF = 1.00e-08
   GGA = PS
   PREC = Accurate
   IALGO = 38
   IBRION = -1
   ISMEAR = 0
   NELMIN = 5
   ADDGRID = .TRUE.
   LCHARG = .FALSE.
   LWAVE = .FALSE.
   LREAL = .FALSE.

 POTCAR:    PAW_PBE Na_pv 19Sep2006               
 POTCAR:    PAW_PBE Cl 06Sep2000                  
 -----------------------------------------------------------------------------
|                                                                             |
|           W    W    AA    RRRRR   N    N  II  N    N   GGGG   !!!           |
|           W    W   A  A   R    R  NN   N  II  NN   N  G    G  !!!           |
|           W    W  A    A  R    R  N N  N  II  N N  N  G       !!!           |
|           W WW W  AAAAAA  RRRRR   N  N N  II  N  N N  G  GGG   !            |
|           WW  WW  A    A  R   R   N   NN  II  N   NN  G    G                |
|           W    W  A    A  R    R  N    N  II  N    N   GGGG   !!!           |
|                                                                             |
|     For optimal performance we recommend to set                             |
|       NCORE = 2 up to number-of-cores-per-socket                            |
|     NCORE specifies how many cores store one orbital (NPAR=cpu/NCORE).      |
|     This setting can greatly improve the performance of VASP for DFT.       |
|     The default, NCORE=1 might be grossly inefficient on modern             |
|     multi-core architectures or massively parallel machines. Do your        |
|     own testing! More info at https://www.vasp.at/wiki/index.php/NCORE      |
|     Unfortunately you need to use the default for GW and RPA                |
|     calculations (for HF NCORE is supported but not extensively tested      |
|     yet).                                                                   |
|                                                                             |
 -----------------------------------------------------------------------------

 POTCAR:    PAW_PBE Na_pv 19Sep2006               
   SHA256 =  6a2f546d9e11350984debacf3dc457d8cffc0868e817d445faca461816a32b94 Na_pv/POTCAR          
   COPYR  = (c) Copyright 19Sep2006 Georg Kresse                                                    
   COPYR  = This file is part of the software VASP. Any use, copying, and all other rights are regul
   COPYR  = If you do not have a valid VASP license, you may not use, copy or distribute this file. 
   VRHFIN =Na: p6s1                                                                                 
   LEXCH  = PE                                                                                      
   EATOM  =   766.0439 eV,   56.3026 Ry                                                             
                                                                                                    
   TITEL  = PAW_PBE Na_pv 19Sep2006                                                                 
   LULTRA =        F    use ultrasoft PP ?                                                          
   IUNSCR =        1    unscreen: 0-lin 1-nonlin 2-no                                               
   RPACOR =    1.800    partial core radius                                                         
   POMASS =   22.990; ZVAL   =    7.000    mass and valenz                                          
   RCORE  =    2.200    outmost cutoff radius                                                       
   RWIGS  =    2.200; RWIGS  =    1.164    wigner-seitz radius (au A)                               
   ENMAX  =  259.561; ENMIN  =  194.671 eV                                                          
   ICORE  =        2    local potential                                                             
   LCOR   =        T    correct aug charges                                                         
   LPAW   =        T    paw PP                                                                      
   EAUG   =  368.056                                                                                
   DEXC   =    0.000                                                                                
   RMAX   =    2.245    core radius for proj-oper                                                   
   RAUG   =    1.300    factor for augmentation sphere                                              
   RDEP   =    2.259    radius for radial grids                                                     
   RDEPT  =    1.738    core radius for aug-charge                                                  
                                                                                                    
   Atomic configuration                                                                             
    5 entries                                                                                       
     n  l   j            E        occ.                                                              
     1  0  0.50     -1033.6933   2.0000                                                             
     2  0  0.50       -56.7526   2.0000                                                             
     2  1  1.50       -28.6721   6.0000                                                             
     3  0  0.50        -2.7440   1.0000                                                             
     3  2  1.50        -1.3606   0.0000                                                             
   Description                                                                                      
     l       E           TYP  RCUT    TYP  RCUT                                                     
     1    -28.6720912     23  2.000                                                                 
     1      6.8029130     23  2.000                                                                 
     0     -2.7439560     23  2.200                                                                 
     0     34.0145650     23  2.200                                                                 
     2     -1.3605826     23  2.200                                                                 
  local pseudopotential read in
  partial core-charges read in
  partial kinetic energy density read in
  atomic valenz-charges read in
  non local Contribution for L=           1  read in
    real space projection operators read in
  non local Contribution for L=           1  read in
    real space projection operators read in
  non local Contribution for L=           0  read in
    real space projection operators read in
  non local Contribution for L=           0  read in
    real space projection operators read in
    PAW grid and wavefunctions read in
 
   number of l-projection  operators is LMAX  =           4
   number of lm-projection operators is LMMAX =           8
 
 POTCAR:    PAW_PBE Cl 06Sep2000                  
   SHA256 =  9f1b6e6ed4247ac726a768b330d26d7667cc3c95a39ff49c1d064c2d9dcce931 Cl/POTCAR             
   COPYR  = (c) Copyright 06Sep2000 Georg Kresse                                                    
   COPYR  = This file is part of the software VASP. Any use, copying, and all other rights are regul
   COPYR  = If you do not have a valid VASP license, you may not use, copy or distribute this file. 
   VRHFIN =Cl: s2p5                                                                                 
   LEXCH  = PE                                                                                      
   EATOM  =   409.7259 eV,   30.1140 Ry                                                             
                                                                                                    
   TITEL  = PAW_PBE Cl 06Sep2000                                                                    
   LULTRA =        F    use ultrasoft PP ?                                                          
   IUNSCR =        1    unscreen: 0-lin 1-nonlin 2-no                                               
   RPACOR =    1.500    partial core radius                                                         
   POMASS =   35.453; ZVAL   =    7.000    mass and valenz                                          
   RCORE  =    1.900    outmost cutoff radius                                                       
   RWIGS  =    2.100; RWIGS  =    1.111    wigner-seitz radius (au A)                               
   ENMAX  =  262.472; ENMIN  =  196.854 eV                                                          
   ICORE  =        2    local potential                                                             
   LCOR   =        T    correct aug charges                                                         
   LPAW   =        T    paw PP                                                                      
   EAUG   =  356.192                                                                                
   DEXC   =    0.000                                                                                
   RMAX   =    1.945    core radius for proj-oper                                                   
   RAUG   =    1.300    factor for augmentation sphere                                              
   RDEP   =    2.020    radius for radial grids                                                     
   RDEPT  =    1.678    core radius for aug-charge                                                  
                                                                                                    
   Atomic configuration                                                                             
    6 entries                                                                                       
     n  l   j            E        occ.                                                              
     1  0  0.50     -2751.1850   2.0000                                                             
     2  0  0.50      -252.6861   2.0000                                                             
     2  1  1.50      -191.6157   6.0000                                                             
     3  0  0.50       -20.6916   2.0000                                                             
     3  1  0.50        -8.5949   5.0000                                                             
     3  2  1.50        -8.1635   0.0000                                                             
   Description                                                                                      
     l       E           TYP  RCUT    TYP  RCUT                                                     
     0    -20.6915656     23  1.900                                                                 
     0    -22.0521482     23  1.900                                                                 
     1     -8.5948577     23  1.900                                                                 
     1     -5.3847331     23  1.900                                                                 
     2     -8.1634956     23  1.900                                                                 
  local pseudopotential read in
  partial core-charges read in
  partial kinetic energy density read in
  atomic valenz-charges read in
  non local Contribution for L=           0  read in
    real space projection operators read in
  non local Contribution for L=           0  read in
    real space projection operators read in
  non local Contribution for L=           1  read in
    real space projection operators read in
  non local Contribution for L=           1  read in
    real space projection operators read in
    PAW grid and wavefunctions read in
 
   number of l-projection  operators is LMAX  =           4
   number of lm-projection operators is LMMAX =           8
 
 -----------------------------------------------------------------------------
|                                                                             |
|               ----> ADVICE to this user running VASP <----                  |
|                                                                             |
|     You have a (more or less) 'large supercell' and for larger cells it     |
|     might be more efficient to use real-space projection operators.         |
|     Therefore, try LREAL= Auto in the INCAR file.                           |
|     Mind: For very accurate calculation, you might also keep the            |
|     reciprocal projection scheme (i.e. LREAL=.FALSE.).                      |
|                                                                             |
 -----------------------------------------------------------------------------

 -----------------------------------------------------------------------------
|                                                                             |
|               ----> ADVICE to this user running VASP <----                  |
|                                                                             |
|     You enforced a specific xc type in the INCAR file but a different       |
|     type was found in the POTCAR file.                                      |
|     I HOPE YOU KNOW WHAT YOU ARE DOING!                                     |
|                                                                             |
 -----------------------------------------------------------------------------

  PAW_PBE Na_pv 19Sep2006               :
 energy of atom  1       EATOM= -766.0439
 kinetic energy error for atom=    0.0189 (will be added to EATOM!!)
  PAW_PBE Cl 06Sep2000                  :
 energy of atom  2       EATOM= -409.7259
 kinetic energy error for atom=    0.0106 (will be added to EATOM!!)
 
 
 POSCAR: Na Cl
  positions in cartesian coordinates
  No initial velocities read in
 exchange correlation table for  LEXCH =       14
   RHO(1)=    0.500       N(1)  =     2000
   RHO(2)=  100.500       N(2)  =     4000
 


--------------------------------------------------------------------------------------------------------


 ion  position               nearest neighbor table
   1  0.003  0.000  0.000-
   2  0.250  0.250  0.000-
   3  0.250  0.000  0.250-
   4  0.000  0.250  0.250-
   5  0.000  0.000  0.500-
   6  0.250  0.250  0.500-
   7  0.250  0.000  0.750-
   8  0.000  0.250  0.750-
   9  0.000  0.500  0.000-
  10  0.250  0.750  0.000-
  11  0.250  0.500  0.250-
  12  0.000  0.750  0.250-
  13  0.000  0.500  0.500-
  14  0.250  0.750  0.500-
  15  0.250  0.500  0.750-
  16  0.000  0.750  0.750-
  17  0.500  0.000  0.000-
  18  0.750  0.250  0.000-
  19  0.750  0.000  0.250-
  20  0.500  0.250  0.250-
  21  0.500  0.000  0.500-
  22  0.750  0.250  0.500-
  23  0.750  0.000  0.750-
  24  0.500  0.250  0.750-
  25  0.500  0.500  0.000-
  26  0.750  0.750  0.000-
  27  0.750  0.500  0.250-
  28  0.500  0.750  0.250-
  29  0.500  0.500  0.500-
  30  0.750  0.750  0.500-
  31  0.750  0.500  0.750-
  32  0.500  0.750  0.750-
  33  0.247  0.250  0.250-
  34  0.000  0.000  0.250-
  35  0.000  0.250  0.000-
  36  0.250  0.000  0.000-
  37  0.250  0.250  0.750-
  38  0.000  0.000  0.750-
  39  0.000  0.250  0.500-
  40  0.250  0.000  0.500-
  41  0.250  0.750  0.250-
  42  0.000  0.500  0.250-
  43  0.000  0.750  0.000-
  44  0.250  0.500  0.000-
  45  0.250  0.750  0.750-
  46  0.000  0.500  0.750-
  47  0.000  0.750  0.500-
  48  0.250  0.500  0.500-
  49  0.750  0.250  0.250-
  50  0.500  0.000  0.250-
  51  0.500  0.250  0.000-
  52  0.750  0.000  0.000-
  53  0.750  0.250  0.750-
  54  0.500  0.000  0.750-
  55  0.500  0.250  0.500-
  56  0.750  0.000  0.500-
  57  0.750  0.750  0.250-
  58  0.500  0.500  0.250-
  59  0.500  0.750  0.000-
  60  0.750  0.500  0.000-
  61  0.750  0.750  0.750-
  62  0.500  0.500  0.750-
  63  0.500  0.750  0.500-
  64  0.750  0.500  0.500-
 
  LATTYP: Found a simple cubic cell.
 ALAT       =    11.2040023600
  
  Lattice vectors:
  
 A1 = (  11.2040023600,   0.0000000000,   0.0000000000)
 A2 = (   0.0000000000,  11.2040023600,   0.0000000000)
 A3 = (   0.0000000000,   0.0000000000,  11.2040023600)


Analysis of symmetry for initial positions (statically):
=====================================================================
 Subroutine PRICEL returns:
 Original cell was already a primitive cell.
 

 Routine SETGRP: Setting up the symmetry group for a 
 simple cubic supercell.


 Subroutine GETGRP returns: Found  2 space group operations
 (whereof  2 operations were pure point group operations)
 out of a pool of 48 trial point group operations.


The static configuration has the point symmetry C_1h.


Analysis of symmetry for dynamics (positions and initial velocities):
=====================================================================
 Subroutine PRICEL returns:
 Original cell was already a primitive cell.
 

 Routine SETGRP: Setting up the symmetry group for a 
 simple cubic supercell.


 Subroutine GETGRP returns: Found  2 space group operations
 (whereof  2 operations were pure point group operations)
 out of a pool of 48 trial point group operations.


The dynamic configuration has the point symmetry C_1h.


 Subroutine INISYM returns: Found  2 space group operations
 (whereof  2 operations are pure point group operations),
 and found     1 'primitive' translations


----------------------------------------------------------------------------------------

                                     Primitive cell                                     

  volume of cell :    1406.4347

  direct lattice vectors                    reciprocal lattice vectors
    11.204002360  0.000000000  0.000000000     0.089253819  0.000000000  0.000000000
     0.000000000 11.204002360  0.000000000     0.000000000  0.089253819  0.000000000
     0.000000000  0.000000000 11.204002360     0.000000000  0.000000000  0.089253819

  length of vectors
    11.204002360 11.204002360 11.204002360     0.089253819  0.089253819  0.089253819

  position of ions in fractional coordinates (direct lattice)
     0.002677615  0.000000000  0.000000000
     0.250000000  0.250000000  0.000000000
     0.250000000  0.000000000  0.250000000
     0.000000000  0.250000000  0.250000000
     0.000000000  0.000000000  0.500000000
     0.250000000  0.250000000  0.500000000
     0.250000000  0.000000000  0.750000000
     0.000000000  0.250000000  0.750000000
     0.000000000  0.500000000  0.000000000
     0.250000000  0.750000000  0.000000000
     0.250000000  0.500000000  0.250000000
     0.000000000  0.750000000  0.250000000
     0.000000000  0.500000000  0.500000000
     0.250000000  0.750000000  0.500000000
     0.250000000  0.500000000  0.750000000
     0.000000000  0.750000000  0.750000000
     0.500000000  0.000000000  0.000000000
     0.750000000  0.250000000  0.000000000
     0.750000000  0.000000000  0.250000000
     0.500000000  0.250000000  0.250000000
     0.500000000  0.000000000  0.500000000
     0.750000000  0.250000000  0.500000000
     0.750000000  0.000000000  0.750000000
     0.500000000  0.250000000  0.750000000
     0.500000000  0.500000000  0.000000000
     0.750000000  0.750000000  0.000000000
     0.750000000  0.500000000  0.250000000
     0.500000000  0.750000000  0.250000000
     0.500000000  0.500000000  0.500000000
     0.750000000  0.750000000  0.500000000
     0.750000000  0.500000000  0.750000000
     0.500000000  0.750000000  0.750000000
     0.247322385  0.250000000  0.250000000
     0.000000000  0.000000000  0.250000000
     0.000000000  0.250000000  0.000000000
     0.250000000  0.000000000  0.000000000
     0.250000000  0.250000000  0.750000000
     0.000000000  0.000000000  0.750000000
     0.000000000  0.250000000  0.500000000
     0.250000000  0.000000000  0.500000000
     0.250000000  0.750000000  0.250000000
     0.000000000  0.500000000  0.250000000
     0.000000000  0.750000000  0.000000000
     0.250000000  0.500000000  0.000000000
     0.250000000  0.750000000  0.750000000
     0.000000000  0.500000000  0.750000000
     0.000000000  0.750000000  0.500000000
     0.250000000  0.500000000  0.500000000
     0.750000000  0.250000000  0.250000000
     0.500000000  0.000000000  0.250000000
     0.500000000  0.250000000  0.000000000
     0.750000000  0.000000000  0.000000000
     0.750000000  0.250000000  0.750000000
     0.500000000  0.000000000  0.750000000
     0.500000000  0.250000000  0.500000000
     0.750000000  0.000000000  0.500000000
     0.750000000  0.750000000  0.250000000
     0.500000000  0.500000000  0.250000000
     0.500000000  0.750000000  0.000000000
     0.750000000  0.500000000  0.000000000
     0.750000000  0.750000000  0.750000000
     0.500000000  0.500000000  0.750000000
     0.500000000  0.750000000  0.500000000
     0.750000000  0.500000000  0.500000000

  ion indices of the primitive-cell ions
   primitive index   ion index
                 1           1
                 2           2
                 3           3
                 4           4
                 5           5
                 6           6
                 7           7
                 8           8
                 9           9
                10          10
                11          11
                12          12
                13          13
                14          14
                15          15
                16          16
                17          17
                18          18
                19          19
                20          20
                21          21
                22          22
                23          23
                24          24
                25          25
                26          26
                27          27
                28          28
                29          29
                30          30
                31          31
                32          32
                33          33
                34          34
                35          35
                36          36
                37          37
                38          38
                39          39
                40          40
                41          41
                42          42
                43          43
                44          44
                45          45
                46          46
                47          47
                48          48
                49          49
                50          50
                51          51
                52          52
                53          53
                54          54
                55          55
                56          56
                57          57
                58          58
                59          59
                60          60
                61          61
                62          62
                63          63
                64          64

----------------------------------------------------------------------------------------

 
 
 KPOINTS: KPOINTS created by Atomic Simulation Env

Automatic generation of k-mesh.
 Grid dimensions read from file:
 generate k-points for:    2    2    2

 Generating k-lattice:

  Cartesian coordinates                     Fractional coordinates (reciprocal lattice)
     0.044626910  0.000000000  0.000000000     0.500000000  0.000000000  0.000000000
     0.000000000  0.044626910  0.000000000     0.000000000  0.500000000  0.000000000
     0.000000000  0.000000000  0.044626910     0.000000000  0.000000000  0.500000000

  Length of vectors
     0.044626910  0.044626910  0.044626910

  Shift w.r.t. Gamma in fractional coordinates (k-lattice)
     0.000000000  0.000000000  0.000000000

 
 Subroutine IBZKPT returns following result:
 ===========================================
 
 Found      6 irreducible k-points:
 
 Following reciprocal coordinates:
            Coordinates               Weight
  0.000000  0.000000  0.000000      1.000000
  0.500000  0.000000  0.000000      1.000000
  0.000000  0.500000  0.000000      2.000000
  0.500000  0.500000  0.000000      2.000000
  0.000000  0.500000  0.500000      1.000000
  0.500000  0.500000  0.500000      1.000000
 
 Following cartesian coordinates:
            Coordinates               Weight
  0.000000  0.000000  0.000000      1.000000
  0.044627  0.000000  0.000000      1.000000
  0.000000  0.044627  0.000000      2.000000
  0.044627  0.044627  0.000000      2.000000
  0.000000  0.044627  0.044627      1.000000
  0.044627  0.044627  0.044627      1.000000
 


--------------------------------------------------------------------------------------------------------




 Dimension of arrays:
   k-points           NKPTS =      6   k-points in BZ     NKDIM =      6   number of bands    NBANDS=    288
   number of dos      NEDOS =    301   number of ions     NIONS =     64
   non local maximal  LDIM  =      4   non local SUM 2l+1 LMDIM =      8
   total plane-waves  NPLWV = 343000
   max r-space proj   IRMAX =      1   max aug-charges    IRDMAX=  56280
   dimension x,y,z NGX =    70 NGY =   70 NGZ =   70
   dimension x,y,z NGXF=   140 NGYF=  140 NGZF=  140
   support grid    NGXF=   280 NGYF=  280 NGZF=  280
   ions per type =              32  32
   NGX,Y,Z   is equivalent  to a cutoff of  10.39, 10.39, 10.39 a.u.
   NGXF,Y,Z  is equivalent  to a cutoff of  20.77, 20.77, 20.77 a.u.

 SYSTEM =  unknown system                          
 POSCAR =  Na Cl                                   

 Startparameter for this run:
   NWRITE =      2    write-flag & timer
   PREC   = accura    normal or accurate (medium, high low for compatibility)
   ISTART =      0    job   : 0-new  1-cont  2-samecut
   ICHARG =      2    charge: 1-file 2-atom 10-const
   ISPIN  =      1    spin polarized calculation?
   LNONCOLLINEAR =      F non collinear calculations
   LSORBIT =      F    spin-orbit coupling
   INIWAV =      1    electr: 0-lowe 1-rand  2-diag
   LASPH  =      F    aspherical Exc in radial PAW
 Electronic Relaxation 1
   ENCUT  =  341.2 eV  25.08 Ry    5.01 a.u.  16.87 16.87 16.87*2*pi/ulx,y,z
   ENINI  =  341.2     initial cutoff
   ENAUG  =  368.1 eV  augmentation charge cutoff
   NELM   =     60;   NELMIN=  5; NELMDL= -5     # of ELM steps 
   EDIFF  = 0.1E-07   stopping-criterion for ELM
   LREAL  =      F    real-space projection
   NLSPLINE    = F    spline interpolate recip. space projectors
   LCOMPAT=      F    compatible to vasp.4.4
   GGA_COMPAT  = T    GGA compatible to vasp.4.4-vasp.4.6
   LMAXPAW     = -100 max onsite density
   LMAXMIX     =    2 max onsite mixed and CHGCAR
   VOSKOWN=      0    Vosko Wilk Nusair interpolation
   ROPT   =    0.00000   0.00000
 Ionic relaxation
   EDIFFG = 0.1E-06   stopping-criterion for IOM
   NSW    =      0    number of steps for IOM
   NBLOCK =      1;   KBLOCK =      1    inner block; outer block 
   IBRION =     -1    ionic relax: 0-MD 1-quasi-New 2-CG
   NFREE  =      0    steps in history (QN), initial steepest desc. (CG)
   ISIF   =      2    stress and relaxation
   IWAVPR =     10    prediction:  0-non 1-charg 2-wave 3-comb
   ISYM   =      2    0-nonsym 1-usesym 2-fastsym
   LCORR  =      T    Harris-Foulkes like correction to forces

   POTIM  = 0.5000    time-step for ionic-motion
   TEIN   =    0.0    initial temperature
   TEBEG  =    0.0;   TEEND  =   0.0 temperature during run
   SMASS  =  -3.00    Nose mass-parameter (am)
   estimated Nose-frequenzy (Omega)   =  0.10E-29 period in steps = 0.13E+47 mass=  -0.287E-26a.u.
   SCALEE = 1.0000    scale energy and forces
   NPACO  =    256;   APACO  = 10.0  distance and # of slots for P.C.
   PSTRESS=    0.0 pullay stress

  Mass of Ions in am
   POMASS =  22.99 35.45
  Ionic Valenz
   ZVAL   =   7.00  7.00
  Atomic Wigner-Seitz radii
   RWIGS  =  -1.00 -1.00
  virtual crystal weights 
   VCA    =   1.00  1.00
   NELECT =     448.0000    total number of electrons
   NUPDOWN=      -1.0000    fix difference up-down

 DOS related values:
   EMIN   =  10.00;   EMAX   =-10.00  energy-range for DOS
   EFERMI =   0.00
   ISMEAR =     0;   SIGMA  =   0.02  broadening in eV -4-tet -1-fermi 0-gaus

 Electronic relaxation 2 (details)
   IALGO  =     38    algorithm
   LDIAG  =      T    sub-space diagonalisation (order eigenvalues)
   LSUBROT=      F    optimize rotation matrix (better conditioning)
   TURBO    =      0    0=normal 1=particle mesh
   IRESTART =      0    0=no restart 2=restart with 2 vectors
   NREBOOT  =      0    no. of reboots
   NMIN     =      0    reboot dimension
   EREF     =   0.00    reference energy to select bands
   IMIX   =      4    mixing-type and parameters
     AMIX     =   0.40;   BMIX     =  1.00
     AMIX_MAG =   1.60;   BMIX_MAG =  1.00
     AMIN     =   0.10
     WC   =   100.;   INIMIX=   1;  MIXPRE=   1;  MAXMIX= -45

 Intra band minimization:
   WEIMIN = 0.0000     energy-eigenvalue tresh-hold
   EBREAK =  0.87E-11  absolut break condition
   DEPER  =   0.30     relativ break condition  

   TIME   =   0.40     timestep for ELM

  volume/ion in A,a.u.               =      21.98       148.30
  Fermi-wavevector in a.u.,A,eV,Ry     =   1.118049  2.112807 17.007750  1.250034
  Thomas-Fermi vector in A             =   2.254677
 
 Write flags
   LWAVE        =      F    write WAVECAR
   LDOWNSAMPLE  =      F    k-point downsampling of WAVECAR
   LCHARG       =      F    write CHGCAR
   LVTOT        =      F    write LOCPOT, total local potential
   LVHAR        =      F    write LOCPOT, Hartree potential only
   LELF         =      F    write electronic localiz. function (ELF)
   LORBIT       =      0    0 simple, 1 ext, 2 COOP (PROOUT), +10 PAW based schemes


 Dipole corrections
   LMONO  =      F    monopole corrections only (constant potential shift)
   LDIPOL =      F    correct potential (dipole corrections)
   IDIPOL =      0    1-x, 2-y, 3-z, 4-all directions 
   EPSILON=  1.0000000 bulk dielectric constant

 Exchange correlation treatment:
   GGA     =    PS    GGA type
   LEXCH   =    14    internal setting for exchange type
   LIBXC   =     F    Libxc                    
   VOSKOWN =     0    Vosko Wilk Nusair interpolation
   LHFCALC =     F    Hartree Fock is set to
   LHFONE  =     F    Hartree Fock one center treatment
   AEXX    =    0.0000 exact exchange contribution

 Linear response parameters
   LEPSILON=     F    determine dielectric tensor
   LRPA    =     F    only Hartree local field effects (RPA)
   LNABLA  =     F    use nabla operator in PAW spheres
   LVEL    =     F    velocity operator in full k-point grid
   CSHIFT  =0.1000    complex shift for real part using Kramers Kronig
   OMEGAMAX=  -1.0    maximum frequency
   DEG_THRESHOLD= 0.2000000E-02 threshold for treating states as degnerate
   RTIME   =   -0.100 relaxation time in fs
  (WPLASMAI=    0.000 imaginary part of plasma frequency in eV, 0.658/RTIME)
   DFIELD  = 0.0000000 0.0000000 0.0000000 field for delta impulse in time
 
  Optional k-point grid parameters
   LKPOINTS_OPT  =     F    use optional k-point grid
   KPOINTS_OPT_MODE=     1    mode for optional k-point grid
 
 Orbital magnetization related:
   ORBITALMAG=     F  switch on orbital magnetization
   LCHIMAG   =     F  perturbation theory with respect to B field
   DQ        =  0.001000  dq finite difference perturbation B field
   LLRAUG    =     F  two centre corrections for induced B field



--------------------------------------------------------------------------------------------------------


 Static calculation
 charge density and potential will be updated during run
 non-spin polarized calculation
 Variant of blocked Davidson
 Davidson routine will perform the subspace rotation
 perform sub-space diagonalisation
    after iterative eigenvector-optimisation
 modified Broyden-mixing scheme, WC =      100.0
 initial mixing is a Kerker type mixing with AMIX =  0.4000 and BMIX =      1.0000
 Hartree-type preconditioning will be used
 using additional bands           64
 reciprocal scheme for non local part
 use partial core corrections
 calculate Harris-corrections to forces 
   (improved forces if not selfconsistent)
 use gradient corrections 
 use of overlap-Matrix (Vanderbilt PP)
 Gauss-broadening in eV      SIGMA  =   0.02


--------------------------------------------------------------------------------------------------------


  energy-cutoff  :      341.21
  volume of cell :     1406.43
      direct lattice vectors                 reciprocal lattice vectors
    11.204002360  0.000000000  0.000000000     0.089253819  0.000000000  0.000000000
     0.000000000 11.204002360  0.000000000     0.000000000  0.089253819  0.000000000
     0.000000000  0.000000000 11.204002360     0.000000000  0.000000000  0.089253819

  length of vectors
    11.204002360 11.204002360 11.204002360     0.089253819  0.089253819  0.089253819


 
 k-points in units of 2pi/SCALE and weight: KPOINTS created by Atomic Simulation Env
   0.00000000  0.00000000  0.00000000       0.125
   0.04462691  0.00000000  0.00000000       0.125
   0.00000000  0.04462691  0.00000000       0.250
   0.04462691  0.04462691  0.00000000       0.250
   0.00000000  0.04462691  0.04462691       0.125
   0.04462691  0.04462691  0.04462691       0.125
 
 k-points in reciprocal lattice and weights: KPOINTS created by Atomic Simulation Env
   0.00000000  0.00000000  0.00000000       0.125
   0.50000000  0.00000000  0.00000000       0.125
   0.00000000  0.50000000  0.00000000       0.250
   0.50000000  0.50000000  0.00000000       0.250
   0.00000000  0.50000000  0.50000000       0.125
   0.50000000  0.50000000  0.50000000       0.125
 
 position of ions in fractional coordinates (direct lattice) 
   0.00267761  0.00000000  0.00000000
   0.25000000  0.25000000  0.00000000
   0.25000000  0.00000000  0.25000000
   0.00000000  0.25000000  0.25000000
   0.00000000  0.00000000  0.50000000
   0.25000000  0.25000000  0.50000000
   0.25000000  0.00000000  0.75000000
   0.00000000  0.25000000  0.75000000
   0.00000000  0.50000000  0.00000000
   0.25000000  0.75000000  0.00000000
   0.25000000  0.50000000  0.25000000
   0.00000000  0.75000000  0.25000000
   0.00000000  0.50000000  0.50000000
   0.25000000  0.75000000  0.50000000
   0.25000000  0.50000000  0.75000000
   0.00000000  0.75000000  0.75000000
   0.50000000  0.00000000  0.00000000
   0.75000000  0.25000000  0.00000000
   0.75000000  0.00000000  0.25000000
   0.50000000  0.25000000  0.25000000
   0.50000000  0.00000000  0.50000000
   0.75000000  0.25000000  0.50000000
   0.75000000  0.00000000  0.75000000
   0.50000000  0.25000000  0.75000000
   0.50000000  0.50000000  0.00000000
   0.75000000  0.75000000  0.00000000
   0.75000000  0.50000000  0.25000000
   0.50000000  0.75000000  0.25000000
   0.50000000  0.50000000  0.50000000
   0.75000000  0.75000000  0.50000000
   0.75000000  0.50000000  0.75000000
   0.50000000  0.75000000  0.75000000
   0.24732239  0.25000000  0.25000000
   0.00000000  0.00000000  0.25000000
   0.00000000  0.25000000  0.00000000
   0.25000000  0.00000000  0.00000000
   0.25000000  0.25000000  0.75000000
   0.00000000  0.00000000  0.75000000
   0.00000000  0.25000000  0.50000000
   0.25000000  0.00000000  0.50000000
   0.25000000  0.75000000  0.25000000
   0.00000000  0.50000000  0.25000000
   0.00000000  0.75000000  0.00000000
   0.25000000  0.50000000  0.00000000
   0.25000000  0.75000000  0.75000000
   0.00000000  0.50000000  0.75000000
   0.00000000  0.75000000  0.50000000
   0.25000000  0.50000000  0.50000000
   0.75000000  0.25000000  0.25000000
   0.50000000  0.00000000  0.25000000
   0.50000000  0.25000000  0.00000000
   0.75000000  0.00000000  0.00000000
   0.75000000  0.25000000  0.75000000
   0.50000000  0.00000000  0.75000000
   0.50000000  0.25000000  0.50000000
   0.75000000  0.00000000  0.50000000
   0.75000000  0.75000000  0.25000000
   0.50000000  0.50000000  0.25000000
   0.50000000  0.75000000  0.00000000
   0.75000000  0.50000000  0.00000000
   0.75000000  0.75000000  0.75000000
   0.50000000  0.50000000  0.75000000
   0.50000000  0.75000000  0.50000000
   0.75000000  0.50000000  0.50000000
 
 position of ions in cartesian coordinates  (Angst):
   0.03000000  0.00000000  0.00000000
   2.80100059  2.80100059  0.00000000
   2.80100059  0.00000000  2.80100059
   0.00000000  2.80100059  2.80100059
   0.00000000  0.00000000  5.60200118
   2.80100059  2.80100059  5.60200118
   2.80100059  0.00000000  8.40300177
   0.00000000  2.80100059  8.40300177
   0.00000000  5.60200118  0.00000000
   2.80100059  8.40300177  0.00000000
   2.80100059  5.60200118  2.80100059
   0.00000000  8.40300177  2.80100059
   0.00000000  5.60200118  5.60200118
   2.80100059  8.40300177  5.60200118
   2.80100059  5.60200118  8.40300177
   0.00000000  8.40300177  8.40300177
   5.60200118  0.00000000  0.00000000
   8.40300177  2.80100059  0.00000000
   8.40300177  0.00000000  2.80100059
   5.60200118  2.80100059  2.80100059
   5.60200118  0.00000000  5.60200118
   8.40300177  2.80100059  5.60200118
   8.40300177  0.00000000  8.40300177
   5.60200118  2.80100059  8.40300177
   5.60200118  5.60200118  0.00000000
   8.40300177  8.40300177  0.00000000
   8.40300177  5.60200118  2.80100059
   5.60200118  8.40300177  2.80100059
   5.60200118  5.60200118  5.60200118
   8.40300177  8.40300177  5.60200118
   8.40300177  5.60200118  8.40300177
   5.60200118  8.40300177  8.40300177
   2.77100059  2.80100059  2.80100059
   0.00000000  0.00000000  2.80100059
   0.00000000  2.80100059  0.00000000
   2.80100059  0.00000000  0.00000000
   2.80100059  2.80100059  8.40300177
   0.00000000  0.00000000  8.40300177
   0.00000000  2.80100059  5.60200118
   2.80100059  0.00000000  5.60200118
   2.80100059  8.40300177  2.80100059
   0.00000000  5.60200118  2.80100059
   0.00000000  8.40300177  0.00000000
   2.80100059  5.60200118  0.00000000
   2.80100059  8.40300177  8.40300177
   0.00000000  5.60200118  8.40300177
   0.00000000  8.40300177  5.60200118
   2.80100059  5.60200118  5.60200118
   8.40300177  2.80100059  2.80100059
   5.60200118  0.00000000  2.80100059
   5.60200118  2.80100059  0.00000000
   8.40300177  0.00000000  0.00000000
   8.40300177  2.80100059  8.40300177
   5.60200118  0.00000000  8.40300177
   5.60200118  2.80100059  5.60200118
   8.40300177  0.00000000  5.60200118
   8.40300177  8.40300177  2.80100059
   5.60200118  5.60200118  2.80100059
   5.60200118  8.40300177  0.00000000
   8.40300177  5.60200118  0.00000000
   8.40300177  8.40300177  8.40300177
   5.60200118  5.60200118  8.40300177
   5.60200118  8.40300177  5.60200118
   8.40300177  5.60200118  5.60200118
 


--------------------------------------------------------------------------------------------------------


 k-point   1 :   0.0000 0.0000 0.0000  plane waves:   20005
 k-point   2 :   0.5000 0.0000 0.0000  plane waves:   20138
 k-point   3 :   0.0000 0.5000 0.0000  plane waves:   20138
 k-point   4 :   0.5000 0.5000 0.0000  plane waves:   20160
 k-point   5 :   0.0000 0.5000 0.5000  plane waves:   20160
 k-point   6 :   0.5000 0.5000 0.5000  plane waves:   20336

 maximum and minimum number of plane-waves per node :     20336    20005

 maximum number of plane-waves:     20336
 maximum index in each direction: 
   IXMAX=   16   IYMAX=   16   IZMAX=   16
   IXMIN=  -17   IYMIN=  -17   IZMIN=  -17


 serial   3D FFT for wavefunctions
 parallel 3D FFT for charge:
    minimum data exchange during FFTs selected (reduces bandwidth)


 total amount of memory used by VASP MPI-rank0   118439. kBytes
=======================================================================

   base      :      30000. kBytes
   nonl-proj :      36470. kBytes
   fftplans  :      14405. kBytes
   grid      :      19342. kBytes
   one-center:        196. kBytes
   wavefun   :      18026. kBytes
 
     INWAV:  cpu time      0.0000: real time      0.0000
 Broyden mixing: mesh for mixing (old mesh)
   NGX = 33   NGY = 33   NGZ = 33
  (NGX  =140   NGY  =140   NGZ  =140)
  gives a total of  35937 points

 initial charge density was supplied:
 charge density of overlapping atoms calculated
 number of electron     448.0000000 magnetization 
 keeping initial charge density in first step


--------------------------------------------------------------------------------------------------------


 Maximum index for augmentation-charges         1834 (set IRDMAX)


--------------------------------------------------------------------------------------------------------


 First call to EWALD:  gamma=   0.158
 Maximum number of real-space cells 3x 3x 3
 Maximum number of reciprocal cells 3x 3x 3

    FEWALD:  cpu time      0.0015: real time      0.0015


--------------------------------------- Iteration      1(   1)  ---------------------------------------


    POTLOK:  cpu time      0.0435: real time      0.0440
    SETDIJ:  cpu time      0.0324: real time      0.0326
     EDDAV:  cpu time      7.2498: real time      7.2884
       DOS:  cpu time      0.0011: real time      0.0011
    --------------------------------------------
      LOOP:  cpu time      7.3268: real time      7.3661

 eigenvalue-minimisations  :  3456
 total energy-change (2. order) : 0.4316609E+04  (-0.1718286E+05)
 number of electron     448.0000000 magnetization 
 augmentation part      448.0000000 magnetization 

 Free energy of the ion-electron system (eV)
  ---------------------------------------------------
  alpha Z        PSCENC =       751.52672365
  Ewald energy   TEWEN  =    -22871.33844468
  -Hartree energ DENC   =     -8992.24812660
  -exchange      EXHF   =         0.00000000
  -V(xc)+E(xc)   XCENC  =      1456.53426702
  PAW double counting   =     26466.43774078   -29286.08056155
  entropy T*S    EENTRO =        -0.00297382
  eigenvalues    EBANDS =      -740.39921017
  atomic energy  EATOM  =     37532.17946992
  Solvation  Ediel_sol  =         0.00000000
  ---------------------------------------------------
  free energy    TOTEN  =      4316.60888456 eV

  energy without entropy =     4316.61185837  energy(sigma->0) =     4316.61037146


--------------------------------------------------------------------------------------------------------




--------------------------------------- Iteration      1(   2)  ---------------------------------------


     EDDAV:  cpu time      7.8916: real time      7.9345
       DOS:  cpu time      0.0002: real time      0.0002
    --------------------------------------------
      LOOP:  cpu time      7.8918: real time      7.9347

 eigenvalue-minimisations  :  3840
 total energy-change (2. order) :-0.3953374E+04  (-0.3763064E+04)
 number of electron     448.0000000 magnetization 
 augmentation part      448.0000000 magnetization 

 Free energy of the ion-electron system (eV)
  ---------------------------------------------------
  alpha Z        PSCENC =       751.52672365
  Ewald energy   TEWEN  =    -22871.33844468
  -Hartree energ DENC   =     -8992.24812660
  -exchange      EXHF   =         0.00000000
  -V(xc)+E(xc)   XCENC  =      1456.53426702
  PAW double counting   =     26466.43774078   -29286.08056155
  entropy T*S    EENTRO =        -0.00000000
  eigenvalues    EBANDS =     -4693.77574846
  atomic energy  EATOM  =     37532.17946992
  Solvation  Ediel_sol  =         0.00000000
  ---------------------------------------------------
  free energy    TOTEN  =       363.23532008 eV

  energy without entropy =      363.23532008  energy(sigma->0) =      363.23532008


--------------------------------------------------------------------------------------------------------




--------------------------------------- Iteration      1(   3)  ---------------------------------------


     EDDAV:  cpu time      8.4781: real time      8.5233
       DOS:  cpu time      0.0002: real time      0.0002
    --------------------------------------------
      LOOP:  cpu time      8.4784: real time      8.5236

 eigenvalue-minimisations  :  4192
 total energy-change (2. order) :-0.5694685E+03  (-0.5652123E+03)
 number of electron     448.0000000 magnetization 
 augmentation part      448.0000000 magnetization 

 Free energy of the ion-electron system (eV)
  ---------------------------------------------------
  alpha Z        PSCENC =       751.52672365
  Ewald energy   TEWEN  =    -22871.33844468
  -Hartree energ DENC   =     -8992.24812660
  -exchange      EXHF   =         0.00000000
  -V(xc)+E(xc)   XCENC  =      1456.53426702
  PAW double counting   =     26466.43774078   -29286.08056155
  entropy T*S    EENTRO =        -0.00000000
  eigenvalues    EBANDS =     -5263.24420987
  atomic energy  EATOM  =     37532.17946992
  Solvation  Ediel_sol  =         0.00000000
  ---------------------------------------------------
  free energy    TOTEN  =      -206.23314133 eV

  energy without entropy =     -206.23314133  energy(sigma->0) =     -206.23314133


--------------------------------------------------------------------------------------------------------




--------------------------------------- Iteration      1(   4)  ---------------------------------------


     EDDAV:  cpu time      8.4326: real time      8.4776
       DOS:  cpu time      0.0002: real time      0.0002
    --------------------------------------------
      LOOP:  cpu time      8.4327: real time      8.4777

 eigenvalue-minimisations  :  4160
 total energy-change (2. order) :-0.2196125E+02  (-0.2185982E+02)
 number of electron     448.0000000 magnetization 
 augmentation part      448.0000000 magnetization 

 Free energy of the ion-electron system (eV)
  ---------------------------------------------------
  alpha Z        PSCENC =       751.52672365
  Ewald energy   TEWEN  =    -22871.33844468
  -Hartree energ DENC   =     -8992.24812660
  -exchange      EXHF   =         0.00000000
  -V(xc)+E(xc)   XCENC  =      1456.53426702
  PAW double counting   =     26466.43774078   -29286.08056155
  entropy T*S    EENTRO =        -0.00000000
  eigenvalues    EBANDS =     -5285.20546018
  atomic energy  EATOM  =     37532.17946992
  Solvation  Ediel_sol  =         0.00000000
  ---------------------------------------------------
  free energy    TOTEN  =      -228.19439164 eV

  energy without entropy =     -228.19439164  energy(sigma->0) =     -228.19439164


--------------------------------------------------------------------------------------------------------




--------------------------------------- Iteration      1(   5)  ---------------------------------------


     EDDAV:  cpu time      8.6191: real time      8.6647
       DOS:  cpu time      0.0002: real time      0.0002
    CHARGE:  cpu time      0.2707: real time      0.2722
    MIXING:  cpu time      0.0013: real time      0.0013
    --------------------------------------------
      LOOP:  cpu time      8.8913: real time      8.9384

 eigenvalue-minimisations  :  4288
 total energy-change (2. order) :-0.8110020E+00  (-0.8096263E+00)
 number of electron     448.0000022 magnetization 
 augmentation part      111.6451473 magnetization 

 Broyden mixing:
  rms(total) = 0.10608E+01    rms(broyden)= 0.10603E+01
  rms(prec ) = 0.14939E+01
  weight for this iteration     100.00

 Free energy of the ion-electron system (eV)
  ---------------------------------------------------
  alpha Z        PSCENC =       751.52672365
  Ewald energy   TEWEN  =    -22871.33844468
  -Hartree energ DENC   =     -8992.24812660
  -exchange      EXHF   =         0.00000000
  -V(xc)+E(xc)   XCENC  =      1456.53426702
  PAW double counting   =     26466.43774078   -29286.08056155
  entropy T*S    EENTRO =        -0.00000000
  eigenvalues    EBANDS =     -5286.01646214
  atomic energy  EATOM  =     37532.17946992
  Solvation  Ediel_sol  =         0.00000000
  ---------------------------------------------------
  free energy    TOTEN  =      -229.00539360 eV

  energy without entropy =     -229.00539360  energy(sigma->0) =     -229.00539360


--------------------------------------------------------------------------------------------------------




--------------------------------------- Iteration      1(   6)  ---------------------------------------


    POTLOK:  cpu time      0.0388: real time      0.0399
    SETDIJ:  cpu time      0.0303: real time      0.0304
     EDDAV:  cpu time      8.6535: real time      8.6985
       DOS:  cpu time      0.0002: real time      0.0002
    CHARGE:  cpu time      0.2688: real time      0.2701
    MIXING:  cpu time      0.0017: real time      0.0017
    --------------------------------------------
      LOOP:  cpu time      8.9932: real time      9.0408

 eigenvalue-minimisations  :  4288
 total energy-change (2. order) : 0.4867593E+01  (-0.9496323E+00)
 number of electron     448.0000022 magnetization 
 augmentation part      112.4575072 magnetization 

 Broyden mixing:
  rms(total) = 0.77605E+00    rms(broyden)= 0.77600E+00
  rms(prec ) = 0.89201E+00
  weight for this iteration     100.00

 eigenvalues of (default mixing * dielectric matrix)
  average eigenvalue GAMMA=   1.0730
  1.0730

 Free energy of the ion-electron system (eV)
  ---------------------------------------------------
  alpha Z        PSCENC =       751.52672365
  Ewald energy   TEWEN  =    -22871.33844468
  -Hartree energ DENC   =     -9061.85178994
  -exchange      EXHF   =         0.00000000
  -V(xc)+E(xc)   XCENC  =      1465.43638520
  PAW double counting   =     27290.58583197   -30102.60107037
  entropy T*S    EENTRO =        -0.00000000
  eigenvalues    EBANDS =     -5228.07490643
  atomic energy  EATOM  =     37532.17946992
  Solvation  Ediel_sol  =         0.00000000
  ---------------------------------------------------
  free energy    TOTEN  =      -224.13780068 eV

  energy without entropy =     -224.13780068  energy(sigma->0) =     -224.13780068


--------------------------------------------------------------------------------------------------------




--------------------------------------- Iteration      1(   7)  ---------------------------------------


    POTLOK:  cpu time      0.0375: real time      0.0377
    SETDIJ:  cpu time      0.0301: real time      0.0302
     EDDAV:  cpu time      9.3847: real time      9.4335
       DOS:  cpu time      0.0002: real time      0.0002
    CHARGE:  cpu time      0.2654: real time      0.2669
    MIXING:  cpu time      0.0018: real time      0.0018
    --------------------------------------------
      LOOP:  cpu time      9.7196: real time      9.7703

 eigenvalue-minimisations  :  4704
 total energy-change (2. order) : 0.3604989E+00  (-0.2060872E+00)
 number of electron     448.0000022 magnetization 
 augmentation part      112.8267604 magnetization 

 Broyden mixing:
  rms(total) = 0.53353E+00    rms(broyden)= 0.53351E+00
  rms(prec ) = 0.56356E+00
  weight for this iteration     100.00

 eigenvalues of (default mixing * dielectric matrix)
  average eigenvalue GAMMA=   2.1542
  1.4377  2.8707

 Free energy of the ion-electron system (eV)
  ---------------------------------------------------
  alpha Z        PSCENC =       751.52672365
  Ewald energy   TEWEN  =    -22871.33844468
  -Hartree energ DENC   =     -9085.82454537
  -exchange      EXHF   =         0.00000000
  -V(xc)+E(xc)   XCENC  =      1470.12190770
  PAW double counting   =     28328.28583596   -31141.01465372
  entropy T*S    EENTRO =        -0.00000000
  eigenvalues    EBANDS =     -5207.71359526
  atomic energy  EATOM  =     37532.17946992
  Solvation  Ediel_sol  =         0.00000000
  ---------------------------------------------------
  free energy    TOTEN  =      -223.77730180 eV

  energy without entropy =     -223.77730180  energy(sigma->0) =     -223.77730180


--------------------------------------------------------------------------------------------------------




--------------------------------------- Iteration      1(   8)  ---------------------------------------


    POTLOK:  cpu time      0.0384: real time      0.0424
    SETDIJ:  cpu time      0.0304: real time      0.0305
     EDDAV:  cpu time      8.1481: real time      8.1910
       DOS:  cpu time      0.0002: real time      0.0002
    CHARGE:  cpu time      0.2686: real time      0.2702
    MIXING:  cpu time      0.0014: real time      0.0014
    --------------------------------------------
      LOOP:  cpu time      8.4871: real time      8.5358

 eigenvalue-minimisations  :  3968
 total energy-change (2. order) :-0.1251986E+00  (-0.2666030E-01)
 number of electron     448.0000022 magnetization 
 augmentation part      112.8098258 magnetization 

 Broyden mixing:
  rms(total) = 0.14141E+00    rms(broyden)= 0.14141E+00
  rms(prec ) = 0.14425E+00
  weight for this iteration     100.00

 eigenvalues of (default mixing * dielectric matrix)
  average eigenvalue GAMMA=   1.5561
  2.5210  1.3844  0.7627

 Free energy of the ion-electron system (eV)
  ---------------------------------------------------
  alpha Z        PSCENC =       751.52672365
  Ewald energy   TEWEN  =    -22871.33844468
  -Hartree energ DENC   =     -9075.24922416
  -exchange      EXHF   =         0.00000000
  -V(xc)+E(xc)   XCENC  =      1472.34173464
  PAW double counting   =     29809.28931561   -32629.11520264
  entropy T*S    EENTRO =        -0.00000000
  eigenvalues    EBANDS =     -5213.53687279
  atomic energy  EATOM  =     37532.17946992
  Solvation  Ediel_sol  =         0.00000000
  ---------------------------------------------------
  free energy    TOTEN  =      -223.90250045 eV

  energy without entropy =     -223.90250045  energy(sigma->0) =     -223.90250045


--------------------------------------------------------------------------------------------------------




--------------------------------------- Iteration      1(   9)  ---------------------------------------


    POTLOK:  cpu time      0.0373: real time      0.0376
    SETDIJ:  cpu time      0.0302: real time      0.0303
     EDDAV:  cpu time      8.6039: real time      8.6495
       DOS:  cpu time      0.0002: real time      0.0002
    CHARGE:  cpu time      0.2663: real time      0.2679
    MIXING:  cpu time      0.0022: real time      0.0022
    --------------------------------------------
      LOOP:  cpu time      8.9401: real time      8.9878

 eigenvalue-minimisations  :  4256
 total energy-change (2. order) : 0.5448345E-02  (-0.1142716E-02)
 number of electron     448.0000022 magnetization 
 augmentation part      112.8316887 magnetization 

 Broyden mixing:
  rms(total) = 0.59593E-01    rms(broyden)= 0.59592E-01
  rms(prec ) = 0.61647E-01
  weight for this iteration     100.00

 eigenvalues of (default mixing * dielectric matrix)
  average eigenvalue GAMMA=   2.0032
  2.8214  2.8010  0.9987  1.3916

 Free energy of the ion-electron system (eV)
  ---------------------------------------------------
  alpha Z        PSCENC =       751.52672365
  Ewald energy   TEWEN  =    -22871.33844468
  -Hartree energ DENC   =     -9077.96882030
  -exchange      EXHF   =         0.00000000
  -V(xc)+E(xc)   XCENC  =      1472.35788535
  PAW double counting   =     29629.20858480   -32448.19476931
  entropy T*S    EENTRO =        -0.00000000
  eigenvalues    EBANDS =     -5211.66768154
  atomic energy  EATOM  =     37532.17946992
  Solvation  Ediel_sol  =         0.00000000
  ---------------------------------------------------
  free energy    TOTEN  =      -223.89705210 eV

  energy without entropy =     -223.89705210  energy(sigma->0) =     -223.89705210


--------------------------------------------------------------------------------------------------------




--------------------------------------- Iteration      1(  10)  ---------------------------------------


    POTLOK:  cpu time      0.0377: real time      0.0379
    SETDIJ:  cpu time      0.0304: real time      0.0305
     EDDAV:  cpu time      8.1432: real time      8.1866
       DOS:  cpu time      0.0002: real time      0.0002
    CHARGE:  cpu time      0.2658: real time      0.2672
    MIXING:  cpu time      0.0027: real time      0.0029
    --------------------------------------------
      LOOP:  cpu time      8.4800: real time      8.5253

 eigenvalue-minimisations  :  3968
 total energy-change (2. order) :-0.4305298E-02  (-0.1786160E-02)
 number of electron     448.0000022 magnetization 
 augmentation part      112.8605104 magnetization 

 Broyden mixing:
  rms(total) = 0.28053E-01    rms(broyden)= 0.28051E-01
  rms(prec ) = 0.30061E-01
  weight for this iteration     100.00

 eigenvalues of (default mixing * dielectric matrix)
  average eigenvalue GAMMA=   1.7109
  2.9408  2.5092  1.2952  1.0213  0.7881

 Free energy of the ion-electron system (eV)
  ---------------------------------------------------
  alpha Z        PSCENC =       751.52672365
  Ewald energy   TEWEN  =    -22871.33844468
  -Hartree energ DENC   =     -9079.40697361
  -exchange      EXHF   =         0.00000000
  -V(xc)+E(xc)   XCENC  =      1472.60374959
  PAW double counting   =     29456.66672840   -32275.90339441
  entropy T*S    EENTRO =        -0.00000000
  eigenvalues    EBANDS =     -5210.22921627
  atomic energy  EATOM  =     37532.17946992
  Solvation  Ediel_sol  =         0.00000000
  ---------------------------------------------------
  free energy    TOTEN  =      -223.90135740 eV

  energy without entropy =     -223.90135740  energy(sigma->0) =     -223.90135740


--------------------------------------------------------------------------------------------------------




--------------------------------------- Iteration      1(  11)  ---------------------------------------


    POTLOK:  cpu time      0.0377: real time      0.0379
    SETDIJ:  cpu time      0.0303: real time      0.0304
     EDDAV:  cpu time      8.9456: real time      8.9933
       DOS:  cpu time      0.0002: real time      0.0002
    CHARGE:  cpu time      0.2670: real time      0.2683
    MIXING:  cpu time      0.0018: real time      0.0018
    --------------------------------------------
      LOOP:  cpu time      9.2825: real time      9.3319

 eigenvalue-minimisations  :  4480
 total energy-change (2. order) : 0.6936747E-03  (-0.1520916E-03)
 number of electron     448.0000022 magnetization 
 augmentation part      112.8515665 magnetization 

 Broyden mixing:
  rms(total) = 0.85486E-02    rms(broyden)= 0.85485E-02
  rms(prec ) = 0.89731E-02
  weight for this iteration     100.00

 eigenvalues of (default mixing * dielectric matrix)
  average eigenvalue GAMMA=   1.5670
  2.9163  2.4423  1.3177  1.0118  0.8571  0.8571

 Free energy of the ion-electron system (eV)
  ---------------------------------------------------
  alpha Z        PSCENC =       751.52672365
  Ewald energy   TEWEN  =    -22871.33844468
  -Hartree energ DENC   =     -9078.33307848
  -exchange      EXHF   =         0.00000000
  -V(xc)+E(xc)   XCENC  =      1472.52900373
  PAW double counting   =     29487.44064739   -32306.81683944
  entropy T*S    EENTRO =        -0.00000000
  eigenvalues    EBANDS =     -5211.08814582
  atomic energy  EATOM  =     37532.17946992
  Solvation  Ediel_sol  =         0.00000000
  ---------------------------------------------------
  free energy    TOTEN  =      -223.90066372 eV

  energy without entropy =     -223.90066372  energy(sigma->0) =     -223.90066372


--------------------------------------------------------------------------------------------------------




--------------------------------------- Iteration      1(  12)  ---------------------------------------


    POTLOK:  cpu time      0.0378: real time      0.0386
    SETDIJ:  cpu time      0.0299: real time      0.0303
     EDDAV:  cpu time      8.6937: real time      8.7391
       DOS:  cpu time      0.0002: real time      0.0002
    CHARGE:  cpu time      0.2684: real time      0.2699
    MIXING:  cpu time      0.0015: real time      0.0015
    --------------------------------------------
      LOOP:  cpu time      9.0314: real time      9.0796

 eigenvalue-minimisations  :  4320
 total energy-change (2. order) : 0.3718965E-04  (-0.1431664E-04)
 number of electron     448.0000022 magnetization 
 augmentation part      112.8488661 magnetization 

 Broyden mixing:
  rms(total) = 0.15133E-02    rms(broyden)= 0.15126E-02
  rms(prec ) = 0.17752E-02
  weight for this iteration     100.00

 eigenvalues of (default mixing * dielectric matrix)
  average eigenvalue GAMMA=   1.5812
  2.8913  2.4161  1.4768  1.2143  1.2143  1.0595  0.7964

 Free energy of the ion-electron system (eV)
  ---------------------------------------------------
  alpha Z        PSCENC =       751.52672365
  Ewald energy   TEWEN  =    -22871.33844468
  -Hartree energ DENC   =     -9078.18339787
  -exchange      EXHF   =         0.00000000
  -V(xc)+E(xc)   XCENC  =      1472.51829992
  PAW double counting   =     29498.32395053   -32317.70019726
  entropy T*S    EENTRO =        -0.00000000
  eigenvalues    EBANDS =     -5211.22703075
  atomic energy  EATOM  =     37532.17946992
  Solvation  Ediel_sol  =         0.00000000
  ---------------------------------------------------
  free energy    TOTEN  =      -223.90062653 eV

  energy without entropy =     -223.90062653  energy(sigma->0) =     -223.90062653


--------------------------------------------------------------------------------------------------------




--------------------------------------- Iteration      1(  13)  ---------------------------------------


    POTLOK:  cpu time      0.0384: real time      0.0394
    SETDIJ:  cpu time      0.0303: real time      0.0304
     EDDAV:  cpu time      8.5999: real time      8.6447
       DOS:  cpu time      0.0002: real time      0.0002
    CHARGE:  cpu time      0.2672: real time      0.2688
    MIXING:  cpu time      0.0019: real time      0.0019
    --------------------------------------------
      LOOP:  cpu time      8.9380: real time      8.9854

 eigenvalue-minimisations  :  4256
 total energy-change (2. order) :-0.4302856E-06  (-0.2060408E-05)
 number of electron     448.0000022 magnetization 
 augmentation part      112.8477820 magnetization 

 Broyden mixing:
  rms(total) = 0.34490E-03    rms(broyden)= 0.34433E-03
  rms(prec ) = 0.41192E-03
  weight for this iteration     100.00

 eigenvalues of (default mixing * dielectric matrix)
  average eigenvalue GAMMA=   1.6187
  2.9784  2.3514  2.3514  1.2559  0.9921  0.9921  1.0141  1.0141

 Free energy of the ion-electron system (eV)
  ---------------------------------------------------
  alpha Z        PSCENC =       751.52672365
  Ewald energy   TEWEN  =    -22871.33844468
  -Hartree energ DENC   =     -9078.11368236
  -exchange      EXHF   =         0.00000000
  -V(xc)+E(xc)   XCENC  =      1472.51089942
  PAW double counting   =     29498.69842741   -32318.07337801
  entropy T*S    EENTRO =        -0.00000000
  eigenvalues    EBANDS =     -5211.29064232
  atomic energy  EATOM  =     37532.17946992
  Solvation  Ediel_sol  =         0.00000000
  ---------------------------------------------------
  free energy    TOTEN  =      -223.90062696 eV

  energy without entropy =     -223.90062696  energy(sigma->0) =     -223.90062696


--------------------------------------------------------------------------------------------------------




--------------------------------------- Iteration      1(  14)  ---------------------------------------


    POTLOK:  cpu time      0.0374: real time      0.0377
    SETDIJ:  cpu time      0.0305: real time      0.0306
     EDDAV:  cpu time      8.2419: real time      8.2848
       DOS:  cpu time      0.0002: real time      0.0002
    CHARGE:  cpu time      0.2696: real time      0.2711
    MIXING:  cpu time      0.0018: real time      0.0018
    --------------------------------------------
      LOOP:  cpu time      8.5814: real time      8.6261

 eigenvalue-minimisations  :  4032
 total energy-change (2. order) :-0.1193766E-05  (-0.2072715E-06)
 number of electron     448.0000022 magnetization 
 augmentation part      112.8476774 magnetization 

 Broyden mixing:
  rms(total) = 0.84969E-03    rms(broyden)= 0.84966E-03
  rms(prec ) = 0.87281E-03
  weight for this iteration     100.00

 eigenvalues of (default mixing * dielectric matrix)
  average eigenvalue GAMMA=   1.6435
  3.0311  2.6152  2.6152  1.3676  1.2163  1.2163  0.9598  0.9598  0.8107

 Free energy of the ion-electron system (eV)
  ---------------------------------------------------
  alpha Z        PSCENC =       751.52672365
  Ewald energy   TEWEN  =    -22871.33844468
  -Hartree energ DENC   =     -9078.12336870
  -exchange      EXHF   =         0.00000000
  -V(xc)+E(xc)   XCENC  =      1472.51207881
  PAW double counting   =     29500.00700965   -32319.37676818
  entropy T*S    EENTRO =        -0.00000000
  eigenvalues    EBANDS =     -5211.28732864
  atomic energy  EATOM  =     37532.17946992
  Solvation  Ediel_sol  =         0.00000000
  ---------------------------------------------------
  free energy    TOTEN  =      -223.90062816 eV

  energy without entropy =     -223.90062816  energy(sigma->0) =     -223.90062816


--------------------------------------------------------------------------------------------------------




--------------------------------------- Iteration      1(  15)  ---------------------------------------


    POTLOK:  cpu time      0.0380: real time      0.0419
    SETDIJ:  cpu time      0.0303: real time      0.0304
     EDDAV:  cpu time      8.3596: real time      8.4034
       DOS:  cpu time      0.0002: real time      0.0002
    CHARGE:  cpu time      0.2653: real time      0.2666
    MIXING:  cpu time      0.0023: real time      0.0023
    --------------------------------------------
      LOOP:  cpu time      8.6957: real time      8.7448

 eigenvalue-minimisations  :  4096
 total energy-change (2. order) :-0.1217180E-05  (-0.3834520E-07)
 number of electron     448.0000022 magnetization 
 augmentation part      112.8477687 magnetization 

 Broyden mixing:
  rms(total) = 0.35259E-03    rms(broyden)= 0.35257E-03
  rms(prec ) = 0.36357E-03
  weight for this iteration     100.00

 eigenvalues of (default mixing * dielectric matrix)
  average eigenvalue GAMMA=   1.6176
  3.1050  2.7134  2.4826  1.4559  1.3224  1.3224  0.9696  0.9696  0.9677  0.8680

 Free energy of the ion-electron system (eV)
  ---------------------------------------------------
  alpha Z        PSCENC =       751.52672365
  Ewald energy   TEWEN  =    -22871.33844468
  -Hartree energ DENC   =     -9078.15056705
  -exchange      EXHF   =         0.00000000
  -V(xc)+E(xc)   XCENC  =      1472.51287510
  PAW double counting   =     29498.99410648   -32318.35930145
  entropy T*S    EENTRO =        -0.00000000
  eigenvalues    EBANDS =     -5211.26549135
  atomic energy  EATOM  =     37532.17946992
  Solvation  Ediel_sol  =         0.00000000
  ---------------------------------------------------
  free energy    TOTEN  =      -223.90062937 eV

  energy without entropy =     -223.90062937  energy(sigma->0) =     -223.90062937


--------------------------------------------------------------------------------------------------------




--------------------------------------- Iteration      1(  16)  ---------------------------------------


    POTLOK:  cpu time      0.0376: real time      0.0378
    SETDIJ:  cpu time      0.0310: real time      0.0313
     EDDAV:  cpu time      8.5135: real time      8.5582
       DOS:  cpu time      0.0002: real time      0.0002
    CHARGE:  cpu time      0.2746: real time      0.2759
    MIXING:  cpu time      0.0019: real time      0.0019
    --------------------------------------------
      LOOP:  cpu time      8.8587: real time      8.9053

 eigenvalue-minimisations  :  4192
 total energy-change (2. order) :-0.5445108E-06  (-0.1566063E-07)
 number of electron     448.0000022 magnetization 
 augmentation part      112.8478491 magnetization 

 Broyden mixing:
  rms(total) = 0.50504E-04    rms(broyden)= 0.50299E-04
  rms(prec ) = 0.56825E-04
  weight for this iteration     100.00

 eigenvalues of (default mixing * dielectric matrix)
  average eigenvalue GAMMA=   1.6263
  3.1207  2.6675  2.5011  1.6264  1.6264  1.3525  1.1318  1.1318  0.9270  0.9270
  0.8777

 Free energy of the ion-electron system (eV)
  ---------------------------------------------------
  alpha Z        PSCENC =       751.52672365
  Ewald energy   TEWEN  =    -22871.33844468
  -Hartree energ DENC   =     -9078.16156680
  -exchange      EXHF   =         0.00000000
  -V(xc)+E(xc)   XCENC  =      1472.51336375
  PAW double counting   =     29498.38064358   -32317.74555260
  entropy T*S    EENTRO =        -0.00000000
  eigenvalues    EBANDS =     -5211.25526675
  atomic energy  EATOM  =     37532.17946992
  Solvation  Ediel_sol  =         0.00000000
  ---------------------------------------------------
  free energy    TOTEN  =      -223.90062992 eV

  energy without entropy =     -223.90062992  energy(sigma->0) =     -223.90062992


--------------------------------------------------------------------------------------------------------




--------------------------------------- Iteration      1(  17)  ---------------------------------------


    POTLOK:  cpu time      0.0378: real time      0.0381
    SETDIJ:  cpu time      0.0307: real time      0.0308
     EDDAV:  cpu time      6.3437: real time      6.3774
       DOS:  cpu time      0.0002: real time      0.0002
    --------------------------------------------
      LOOP:  cpu time      6.4124: real time      6.4464

 eigenvalue-minimisations  :  2816
 total energy-change (2. order) : 0.2655725E-08  (-0.7020640E-09)
 number of electron     448.0000022 magnetization 
 augmentation part      112.8478491 magnetization 

 Free energy of the ion-electron system (eV)
  ---------------------------------------------------
  alpha Z        PSCENC =       751.52672365
  Ewald energy   TEWEN  =    -22871.33844468
  -Hartree energ DENC   =     -9078.16294241
  -exchange      EXHF   =         0.00000000
  -V(xc)+E(xc)   XCENC  =      1472.51340324
  PAW double counting   =     29498.30344317   -32317.66820412
  entropy T*S    EENTRO =        -0.00000000
  eigenvalues    EBANDS =     -5211.25407869
  atomic energy  EATOM  =     37532.17946992
  Solvation  Ediel_sol  =         0.00000000
  ---------------------------------------------------
  free energy    TOTEN  =      -223.90062992 eV

  energy without entropy =     -223.90062992  energy(sigma->0) =     -223.90062992


--------------------------------------------------------------------------------------------------------




 average (electrostatic) potential at core
  the test charge radii are     0.9254  0.9406
  (the norm of the test charge is              1.0000)
       1 -46.9467       2 -46.9554       3 -46.9554       4 -46.9262       5 -46.9467
       6 -46.9509       7 -46.9553       8 -46.9464       9 -46.9467      10 -46.9553
      11 -46.9509      12 -46.9464      13 -46.9467      14 -46.9508      15 -46.9508
      16 -46.9486      17 -46.9525      18 -46.9440      19 -46.9440      20 -46.9726
      21 -46.9525      22 -46.9484      23 -46.9440      24 -46.9528      25 -46.9525
      26 -46.9440      27 -46.9484      28 -46.9528      29 -46.9525      30 -46.9484
      31 -46.9484      32 -46.9506      33 -93.5906      34 -93.5805      35 -93.5805
      36 -93.6117      37 -93.5910      38 -93.5866      39 -93.5806      40 -93.5891
      41 -93.5910      42 -93.5806      43 -93.5866      44 -93.5891      45 -93.5910
      46 -93.5867      47 -93.5867      48 -93.5892      49 -93.5855      50 -93.5958
      51 -93.5958      52 -93.5650      53 -93.5855      54 -93.5897      55 -93.5958
      56 -93.5873      57 -93.5855      58 -93.5958      59 -93.5897      60 -93.5873
      61 -93.5855      62 -93.5897      63 -93.5897      64 -93.5872
 
 
 
 E-fermi :  -0.5515     XC(G=0):  -8.4227     alpha+bet : -8.2520

 Fermi energy:        -0.5515466342

 k-point     1 :       0.0000    0.0000    0.0000
  band No.  band energies     occupation 
      1     -21.3091      2.00000
      2     -21.3090      2.00000
      3     -21.3087      2.00000
      4     -21.3047      2.00000
      5     -21.3013      2.00000
      6     -21.3001      2.00000
      7     -21.3001      2.00000
      8     -21.2949      2.00000
      9     -21.2946      2.00000
     10     -21.2943      2.00000
     11     -21.2940      2.00000
     12     -21.2940      2.00000
     13     -21.2939      2.00000
     14     -21.2932      2.00000
     15     -21.2932      2.00000
     16     -21.2928      2.00000
     17     -21.2919      2.00000
     18     -21.2916      2.00000
     19     -21.2914      2.00000
     20     -21.2905      2.00000
     21     -21.2904      2.00000
     22     -21.2887      2.00000
     23     -21.2878      2.00000
     24     -21.2877      2.00000
     25     -21.2867      2.00000
     26     -21.2865      2.00000
     27     -21.2863      2.00000
     28     -21.2861      2.00000
     29     -21.2857      2.00000
     30     -21.2850      2.00000
     31     -21.2850      2.00000
     32     -21.2840      2.00000
     33     -21.2838      2.00000
     34     -21.2837      2.00000
     35     -21.2835      2.00000
     36     -21.2834      2.00000
     37     -21.2830      2.00000
     38     -21.2830      2.00000
     39     -21.2828      2.00000
     40     -21.2828      2.00000
     41     -21.2820      2.00000
     42     -21.2820      2.00000
     43     -21.2820      2.00000
     44     -21.2814      2.00000
     45     -21.2813      2.00000
     46     -21.2812      2.00000
     47     -21.2809      2.00000
     48     -21.2804      2.00000
     49     -21.2804      2.00000
     50     -21.2802      2.00000
     51     -21.2801      2.00000
     52     -21.2799      2.00000
     53     -21.2799      2.00000
     54     -21.2789      2.00000
     55     -21.2788      2.00000
     56     -21.2780      2.00000
     57     -21.2777      2.00000
     58     -21.2769      2.00000
     59     -21.2766      2.00000
     60     -21.2765      2.00000
     61     -21.2762      2.00000
     62     -21.2759      2.00000
     63     -21.2758      2.00000
     64     -21.2756      2.00000
     65     -21.2753      2.00000
     66     -21.2753      2.00000
     67     -21.2752      2.00000
     68     -21.2751      2.00000
     69     -21.2748      2.00000
     70     -21.2745      2.00000
     71     -21.2744      2.00000
     72     -21.2734      2.00000
     73     -21.2732      2.00000
     74     -21.2725      2.00000
     75     -21.2725      2.00000
     76     -21.2716      2.00000
     77     -21.2715      2.00000
     78     -21.2714      2.00000
     79     -21.2713      2.00000
     80     -21.2712      2.00000
     81     -21.2710      2.00000
     82     -21.2707      2.00000
     83     -21.2706      2.00000
     84     -21.2704      2.00000
     85     -21.2701      2.00000
     86     -21.2699      2.00000
     87     -21.2697      2.00000
     88     -21.2693      2.00000
     89     -21.2686      2.00000
     90     -21.2678      2.00000
     91     -21.2676      2.00000
     92     -21.2676      2.00000
     93     -21.2674      2.00000
     94     -21.2557      2.00000
     95     -21.2556      2.00000
     96     -21.2553      2.00000
     97     -13.3581      2.00000
     98     -13.1426      2.00000
     99     -13.1386      2.00000
    100     -13.1374      2.00000
    101     -13.1374      2.00000
    102     -13.1361      2.00000
    103     -13.1334      2.00000
    104     -13.0215      2.00000
    105     -13.0145      2.00000
    106     -13.0145      2.00000
    107     -13.0129      2.00000
    108     -13.0114      2.00000
    109     -13.0114      2.00000
    110     -13.0112      2.00000
    111     -13.0111      2.00000
    112     -13.0097      2.00000
    113     -13.0087      2.00000
    114     -13.0087      2.00000
    115     -13.0044      2.00000
    116     -12.9896      2.00000
    117     -12.9892      2.00000
    118     -12.9891      2.00000
    119     -12.9885      2.00000
    120     -12.9416      2.00000
    121     -12.9411      2.00000
    122     -12.9402      2.00000
    123     -12.9244      2.00000
    124     -12.9230      2.00000
    125     -12.9213      2.00000
    126     -12.9212      2.00000
    127     -12.9188      2.00000
    128     -12.9151      2.00000
    129      -2.7000      2.00000
    130      -2.7000      2.00000
    131      -2.7000      2.00000
    132      -2.6999      2.00000
    133      -2.4240      2.00000
    134      -2.4240      2.00000
    135      -2.4240      2.00000
    136      -2.2075      2.00000
    137      -2.2074      2.00000
    138      -2.2056      2.00000
    139      -2.2046      2.00000
    140      -2.2045      2.00000
    141      -2.2044      2.00000
    142      -2.2042      2.00000
    143      -2.2040      2.00000
    144      -2.2039      2.00000
    145      -2.2030      2.00000
    146      -2.2013      2.00000
    147      -2.2011      2.00000
    148      -1.9283      2.00000
    149      -1.9283      2.00000
    150      -1.9259      2.00000
    151      -1.9259      2.00000
    152      -1.9249      2.00000
    153      -1.9249      2.00000
    154      -1.9245      2.00000
    155      -1.9244      2.00000
    156      -1.9235      2.00000
    157      -1.9234      2.00000
    158      -1.9211      2.00000
    159      -1.9211      2.00000
    160      -1.7977      2.00000
    161      -1.7967      2.00000
    162      -1.7966      2.00000
    163      -1.7966      2.00000
    164      -1.7966      2.00000
    165      -1.7954      2.00000
    166      -1.5087      2.00000
    167      -1.5087      2.00000
    168      -1.5062      2.00000
    169      -1.5060      2.00000
    170      -1.5059      2.00000
    171      -1.5056      2.00000
    172      -1.5056      2.00000
    173      -1.5053      2.00000
    174      -1.5046      2.00000
    175      -1.5045      2.00000
    176      -1.5021      2.00000
    177      -1.5020      2.00000
    178      -1.4644      2.00000
    179      -1.4636      2.00000
    180      -1.4627      2.00000
    181      -1.4626      2.00000
    182      -1.4621      2.00000
    183      -1.4605      2.00000
    184      -1.2948      2.00000
    185      -1.2948      2.00000
    186      -1.2946      2.00000
    187      -1.2946      2.00000
    188      -1.2946      2.00000
    189      -1.2946      2.00000
    190      -1.0045      2.00000
    191      -1.0043      2.00000
    192      -1.0033      2.00000
    193      -1.0030      2.00000
    194      -1.0023      2.00000
    195      -1.0010      2.00000
    196      -1.0009      2.00000
    197      -1.0006      2.00000
    198      -0.9987      2.00000
    199      -0.9986      2.00000
    200      -0.9974      2.00000
    201      -0.9974      2.00000
    202      -0.9528      2.00000
    203      -0.9526      2.00000
    204      -0.9523      2.00000
    205      -0.9512      2.00000
    206      -0.9492      2.00000
    207      -0.9481      2.00000
    208      -0.9479      2.00000
    209      -0.9475      2.00000
    210      -0.9474      2.00000
    211      -0.9472      2.00000
    212      -0.9469      2.00000
    213      -0.9468      2.00000
    214      -0.9457      2.00000
    215      -0.9456      2.00000
    216      -0.9446      2.00000
    217      -0.9439      2.00000
    218      -0.9422      2.00000
    219      -0.9417      2.00000
    220      -0.9410      2.00000
    221      -0.9408      2.00000
    222      -0.6649      2.00000
    223      -0.6648      2.00000
    224      -0.6648      2.00000
    225       4.3403      0.00000
    226       6.3610      0.00000
    227       6.3656      0.00000
    228       6.3680      0.00000
[...]
         0         1         2         3         4         5         6         7         8         9
 total charge-density along one line
 
 pseudopotential strength for first ion, spin component:           1
-25.385   0.000   0.000   2.509  -0.000  -0.000  -0.000  -0.000
  0.000 -25.385   0.000  -0.000   2.509  -0.000  -0.000  -0.000
  0.000   0.000 -25.385  -0.000  -0.000   2.509  -0.000  -0.001
  2.509  -0.000  -0.000   6.529   0.000   0.000   0.000  -0.000
 -0.000   2.509  -0.000   0.000   6.529   0.000   0.000  -0.000
 -0.000  -0.000   2.509   0.000   0.000   6.529   0.000   0.000
 -0.000  -0.000  -0.000   0.000   0.000   0.000   1.428   6.993
 -0.000  -0.000  -0.001  -0.000  -0.000   0.000   6.993  33.988
 total augmentation occupancy for first ion, spin component:           1
  2.002  -0.000  -0.000   0.002  -0.000  -0.000   0.000  -0.000
 -0.000   2.002  -0.000  -0.000   0.002  -0.000   0.000  -0.000
 -0.000  -0.000   2.002  -0.000  -0.000   0.002   0.001  -0.000
  0.002  -0.000  -0.000   0.017  -0.000  -0.000   0.000   0.000
 -0.000   0.002  -0.000  -0.000   0.017  -0.000   0.000   0.000
 -0.000  -0.000   0.002  -0.000  -0.000   0.017   0.003  -0.000
  0.000   0.000   0.001   0.000   0.000   0.003   0.403  -0.001
 -0.000  -0.000  -0.000   0.000   0.000  -0.000  -0.001   0.000


------------------------ aborting loop because EDIFF is reached ----------------------------------------


    CHARGE:  cpu time      0.2662: real time      0.2678
    FORLOC:  cpu time      0.0120: real time      0.0121
    FORNL :  cpu time      1.7150: real time      1.7248
    STRESS:  cpu time      9.4689: real time      9.5143
    FORCOR:  cpu time      0.0448: real time      0.0450
    FORHAR:  cpu time      0.0187: real time      0.0188
    MIXING:  cpu time      0.0012: real time      0.0012
    OFIELD:  cpu time      0.0000: real time      0.0000

  FORCE on cell =-STRESS in cart. coord.  units (eV):
  Direction    XX          YY          ZZ          XY          YZ          ZX
  --------------------------------------------------------------------------------------
  Alpha Z   751.52672   751.52672   751.52672
  Ewald   -7623.63086 -7623.92246 -7623.92246    -0.00720     0.00439    -0.00720
  Hartree  3026.12122  3026.02182  3026.02182    -0.00674     0.00359    -0.00674
  E(xc)   -2014.34799 -2014.34812 -2014.34812    -0.00000     0.00000    -0.00000
  Local   -2025.14790 -2024.76434 -2024.76434     0.01392    -0.00799     0.01392
  n-local  1887.63166  1887.51948  1887.72178     0.00001     0.00001     0.00001
  augment   687.00896   687.00934   687.00904    -0.00002    -0.00009    -0.00011
  Kinetic  5310.52702  5310.26989  5310.78057     0.00011    -0.00004     0.00011
  Fock        0.00000     0.00000     0.00000     0.00000     0.00000     0.00000
  -------------------------------------------------------------------------------------
  Total      -0.31117    -0.33133    -0.33133     0.00003    -0.00013     0.00003
  in kB      -0.35448    -0.37744    -0.37744     0.00004    -0.00015     0.00004
  external pressure =       -0.37 kB  Pullay stress =        0.00 kB


 VOLUME and BASIS-vectors are now :
 -----------------------------------------------------------------------------
  energy-cutoff  :      341.21
  volume of cell :     1406.43
      direct lattice vectors                 reciprocal lattice vectors
    11.204002360  0.000000000  0.000000000     0.089253819  0.000000000  0.000000000
     0.000000000 11.204002360  0.000000000     0.000000000  0.089253819  0.000000000
     0.000000000  0.000000000 11.204002360     0.000000000  0.000000000  0.089253819

  length of vectors
    11.204002360 11.204002360 11.204002360     0.089253819  0.089253819  0.089253819


 FORCES acting on ions
    electron-ion (+dipol)            ewald-force                    non-local-force                 convergence-correction
 -----------------------------------------------------------------------------------------------
   0.408E+01 0.170E+00 0.170E+00   -.403E+01 -.162E+00 -.162E+00   -.116E+00 -.610E-02 -.610E-02   0.161E-03 -.760E-05 -.760E-05
   -.120E+01 -.445E+00 -.160E-01   0.117E+01 0.479E+00 0.153E-01   0.347E-01 -.273E-01 0.778E-03   0.220E-03 -.123E-04 0.199E-05
   -.120E+01 -.160E-01 -.445E+00   0.117E+01 0.153E-01 0.479E+00   0.347E-01 0.778E-03 -.273E-01   0.220E-03 0.199E-05 -.123E-04
   0.248E+01 0.246E-02 0.246E-02   -.237E+01 -.259E-02 -.259E-02   -.137E+00 0.106E-03 0.106E-03   0.124E-03 0.142E-05 0.142E-05
   0.226E+00 0.168E+00 -.168E+00   -.225E+00 -.161E+00 0.161E+00   -.733E-03 -.607E-02 0.607E-02   0.119E-03 -.395E-05 0.840E-05
   -.968E+00 -.397E-01 0.160E-01   0.926E+00 0.392E-01 -.153E-01   0.376E-01 0.431E-03 -.785E-03   0.222E-03 -.124E-05 -.116E-05
   -.355E+00 -.389E-03 0.445E+00   0.356E+00 0.398E-03 -.479E+00   -.255E-03 -.101E-04 0.273E-01   0.205E-03 0.233E-05 0.117E-04
   0.315E+00 0.249E-02 -.247E-02   -.324E+00 -.259E-02 0.259E-02   0.737E-02 0.899E-04 -.100E-03   0.121E-03 -.167E-05 -.144E-05
   0.226E+00 -.168E+00 0.168E+00   -.225E+00 0.161E+00 -.161E+00   -.733E-03 0.607E-02 -.607E-02   0.119E-03 0.840E-05 -.395E-05
   -.355E+00 0.445E+00 -.389E-03   0.356E+00 -.479E+00 0.398E-03   -.255E-03 0.273E-01 -.101E-04   0.205E-03 0.117E-04 0.233E-05
   -.968E+00 0.160E-01 -.397E-01   0.926E+00 -.153E-01 0.392E-01   0.376E-01 -.785E-03 0.431E-03   0.222E-03 -.116E-05 -.124E-05
   0.315E+00 -.247E-02 0.249E-02   -.324E+00 0.259E-02 -.259E-02   0.737E-02 -.100E-03 0.899E-04   0.121E-03 -.144E-05 -.167E-05
   0.127E+00 -.168E+00 -.168E+00   -.129E+00 0.161E+00 0.161E+00   0.160E-02 0.606E-02 0.606E-02   0.121E-03 0.609E-05 0.609E-05
   -.120E+00 0.397E-01 0.388E-03   0.116E+00 -.392E-01 -.398E-03   0.276E-02 -.428E-03 0.106E-04   0.207E-03 -.249E-06 -.190E-05
   -.120E+00 0.388E-03 0.397E-01   0.116E+00 -.398E-03 -.392E-01   0.276E-02 0.106E-04 -.428E-03   0.207E-03 -.190E-05 -.249E-06
   0.301E+00 -.248E-02 -.248E-02   -.310E+00 0.259E-02 0.259E-02   0.646E-02 -.901E-04 -.901E-04   0.124E-03 0.140E-05 0.140E-05
   -.386E+00 -.166E+00 -.166E+00   0.451E+00 0.159E+00 0.159E+00   -.564E-01 0.603E-02 0.603E-02   -.143E-03 0.116E-04 0.116E-04
   0.540E-01 0.438E+00 0.159E-02   -.309E-01 -.470E+00 -.158E-02   -.185E-01 0.268E-01 -.109E-04   -.221E-03 0.134E-04 0.505E-06
   0.540E-01 0.159E-02 0.438E+00   -.309E-01 -.158E-02 -.470E+00   -.185E-01 -.109E-04 0.268E-01   -.221E-03 0.505E-06 0.134E-04
   0.195E+01 -.739E-03 -.740E-03   -.182E+01 0.777E-03 0.777E-03   -.144E+00 -.315E-04 -.315E-04   -.104E-03 0.230E-06 0.230E-06
   -.613E-01 -.166E+00 0.166E+00   0.636E-01 0.159E+00 -.159E+00   -.169E-02 0.602E-02 -.603E-02   -.117E-03 0.143E-04 -.119E-04
   0.291E+00 0.395E-01 -.159E-02   -.272E+00 -.391E-01 0.158E-02   -.154E-01 -.405E-03 0.106E-04   -.224E-03 -.188E-05 -.883E-06
   -.149E+00 0.287E-03 -.438E+00   0.157E+00 -.274E-03 0.470E+00   -.592E-02 -.134E-04 -.268E-01   -.207E-03 0.285E-05 -.128E-04
   -.149E+00 -.751E-03 0.746E-03   0.155E+00 0.777E-03 -.777E-03   -.464E-02 -.198E-04 0.260E-04   -.123E-03 -.168E-05 -.589E-06
   -.613E-01 0.166E+00 -.166E+00   0.636E-01 -.159E+00 0.159E+00   -.169E-02 -.603E-02 0.602E-02   -.117E-03 -.119E-04 0.143E-04
   -.149E+00 -.438E+00 0.287E-03   0.157E+00 0.470E+00 -.274E-03   -.592E-02 -.268E-01 -.134E-04   -.207E-03 -.128E-04 0.285E-05
   0.291E+00 -.159E-02 0.395E-01   -.272E+00 0.158E-02 -.391E-01   -.154E-01 0.106E-04 -.405E-03   -.224E-03 -.883E-06 -.188E-05
   -.149E+00 0.746E-03 -.751E-03   0.155E+00 -.777E-03 0.777E-03   -.464E-02 0.260E-04 -.198E-04   -.123E-03 -.589E-06 -.168E-05
   0.490E-02 0.166E+00 0.166E+00   -.159E-02 -.159E+00 -.159E+00   -.251E-02 -.602E-02 -.602E-02   -.119E-03 -.141E-04 -.141E-04
   0.884E-01 -.395E-01 -.287E-03   -.847E-01 0.391E-01 0.274E-03   -.285E-02 0.407E-03 0.128E-04   -.208E-03 0.856E-06 -.254E-05
   0.884E-01 -.287E-03 -.395E-01   -.847E-01 0.274E-03 0.391E-01   -.285E-02 0.128E-04 0.407E-03   -.208E-03 -.254E-05 0.856E-06
   -.164E+00 0.751E-03 0.751E-03   0.171E+00 -.777E-03 -.777E-03   -.551E-02 0.201E-04 0.201E-04   -.123E-03 0.144E-05 0.144E-05
   -.408E+01 -.160E+00 -.160E+00   0.403E+01 0.162E+00 0.162E+00   0.121E+00 -.331E-02 -.331E-02   0.180E-03 -.316E-05 -.316E-05
   0.116E+01 0.487E+00 0.152E-01   -.117E+01 -.479E+00 -.153E-01   0.721E-02 -.140E-01 -.420E-04   0.103E-03 0.216E-05 0.301E-06
   0.116E+01 0.152E-01 0.487E+00   -.117E+01 -.153E-01 -.479E+00   0.721E-02 -.420E-04 -.140E-01   0.103E-03 0.301E-06 0.216E-05
   -.236E+01 -.264E-02 -.264E-02   0.237E+01 0.259E-02 0.259E-02   0.135E-01 0.673E-04 0.673E-04   0.178E-03 -.109E-06 -.109E-06
   -.227E+00 -.159E+00 0.159E+00   0.225E+00 0.161E+00 -.161E+00   0.333E-02 -.329E-02 0.330E-02   0.181E-03 -.583E-05 -.171E-06
   0.914E+00 0.400E-01 -.152E-01   -.926E+00 -.392E-01 0.153E-01   0.166E-01 -.144E-02 0.463E-04   0.109E-03 -.544E-05 -.467E-05
   0.361E+00 0.383E-03 -.487E+00   -.356E+00 -.398E-03 0.479E+00   -.780E-02 0.293E-04 0.140E-01   0.103E-03 -.684E-05 -.957E-06
   -.328E+00 -.264E-02 0.264E-02   0.324E+00 0.259E-02 -.259E-02   0.631E-02 0.684E-04 -.755E-04   0.177E-03 0.707E-05 0.265E-05
   -.227E+00 0.159E+00 -.159E+00   0.225E+00 -.161E+00 0.161E+00   0.333E-02 0.330E-02 -.329E-02   0.181E-03 -.171E-06 -.583E-05
   0.361E+00 -.487E+00 0.383E-03   -.356E+00 0.479E+00 -.398E-03   -.780E-02 0.140E-01 0.293E-04   0.103E-03 -.957E-06 -.684E-05
   0.914E+00 -.152E-01 0.400E-01   -.926E+00 0.153E-01 -.392E-01   0.166E-01 0.463E-04 -.144E-02   0.109E-03 -.467E-05 -.544E-05
   -.328E+00 0.264E-02 -.264E-02   0.324E+00 -.259E-02 0.259E-02   0.631E-02 -.755E-04 0.684E-04   0.177E-03 0.265E-05 0.707E-05
   -.129E+00 0.159E+00 0.159E+00   0.129E+00 -.161E+00 -.161E+00   0.742E-03 0.329E-02 0.329E-02   0.170E-03 0.587E-05 0.587E-05
   0.115E+00 -.401E-01 -.384E-03   -.116E+00 0.392E-01 0.398E-03   0.163E-02 0.144E-02 -.255E-04   0.100E-03 0.409E-05 0.475E-06
   0.115E+00 -.384E-03 -.401E-01   -.116E+00 0.398E-03 0.392E-01   0.163E-02 -.255E-04 0.144E-02   0.100E-03 0.475E-06 0.409E-05
   -.313E+00 0.264E-02 0.264E-02   0.310E+00 -.259E-02 -.259E-02   0.588E-02 -.703E-04 -.703E-04   0.177E-03 -.516E-05 -.516E-05
   0.457E+00 0.157E+00 0.157E+00   -.451E+00 -.159E+00 -.159E+00   -.101E-01 0.325E-02 0.325E-02   -.186E-03 0.223E-05 0.223E-05
   -.212E-01 -.478E+00 -.157E-02   0.309E-01 0.470E+00 0.158E-02   -.163E-01 0.137E-01 -.250E-04   -.104E-03 0.265E-05 -.286E-06
   -.212E-01 -.157E-02 -.478E+00   0.309E-01 0.158E-02 0.470E+00   -.163E-01 -.250E-04 0.137E-01   -.104E-03 -.286E-06 0.265E-05
   -.181E+01 0.778E-03 0.780E-03   0.182E+01 -.777E-03 -.777E-03   -.131E-02 -.506E-05 -.506E-05   -.184E-03 -.810E-06 -.810E-06
   0.671E-01 0.157E+00 -.157E+00   -.636E-01 -.159E+00 0.159E+00   -.551E-02 0.324E-02 -.325E-02   -.179E-03 0.321E-05 -.113E-05
   -.268E+00 -.399E-01 0.157E-02   0.272E+00 0.391E-01 -.158E-02   -.700E-02 0.142E-02 0.248E-04   -.107E-03 0.672E-05 0.103E-05
   0.163E+00 -.261E-03 0.478E+00   -.157E+00 0.274E-03 -.470E+00   -.109E-01 -.746E-05 -.137E-01   -.997E-04 -.271E-06 -.287E-05
   0.157E+00 0.779E-03 -.782E-03   -.155E+00 -.777E-03 0.777E-03   -.351E-02 -.803E-05 0.934E-05   -.179E-03 0.170E-05 -.172E-05
   0.671E-01 -.157E+00 0.157E+00   -.636E-01 0.159E+00 -.159E+00   -.551E-02 -.325E-02 0.324E-02   -.179E-03 -.113E-05 0.321E-05
   0.163E+00 0.478E+00 -.261E-03   -.157E+00 -.470E+00 0.274E-03   -.109E-01 -.137E-01 -.746E-05   -.997E-04 -.287E-05 -.271E-06
   -.268E+00 0.157E-02 -.399E-01   0.272E+00 -.158E-02 0.391E-01   -.700E-02 0.248E-04 0.142E-02   -.107E-03 0.103E-05 0.672E-05
   0.157E+00 -.782E-03 0.779E-03   -.155E+00 0.777E-03 -.777E-03   -.351E-02 0.934E-05 -.803E-05   -.179E-03 -.172E-05 0.170E-05
   -.258E-03 -.157E+00 -.157E+00   0.159E-02 0.159E+00 0.159E+00   -.191E-02 -.324E-02 -.324E-02   -.174E-03 -.414E-05 -.414E-05
   -.837E-01 0.399E-01 0.261E-03   0.847E-01 -.391E-01 -.274E-03   -.156E-02 -.142E-02 0.884E-05   -.987E-04 -.692E-05 -.102E-05
   -.837E-01 0.261E-03 0.399E-01   0.847E-01 -.274E-03 -.391E-01   -.156E-02 0.884E-05 -.142E-02   -.987E-04 -.102E-05 -.692E-05
   0.173E+00 -.772E-03 -.772E-03   -.171E+00 0.777E-03 0.777E-03   -.388E-02 0.272E-05 0.272E-05   -.181E-03 0.311E-05 0.311E-05
 -----------------------------------------------------------------------------------------------
   0.300E+00 0.485E-04 0.508E-04   0.164E-12 0.340E-13 0.125E-12   -.299E+00 -.539E-04 -.539E-04   0.214E-04 -.746E-05 -.746E-05
 
 
 POSITION                                       TOTAL-FORCE (eV/Angst)
 -----------------------------------------------------------------------------------
      0.03000      0.00000      0.00000        -0.062625      0.001307      0.001307
      2.80100      2.80100      0.00000        -0.003500      0.005926      0.000092
      2.80100      0.00000      2.80100        -0.003500      0.000092      0.005926
      0.00000      2.80100      2.80100        -0.021939     -0.000024     -0.000024
      0.00000      0.00000      5.60200         0.000164      0.001297     -0.001299
      2.80100      2.80100      5.60200        -0.005036     -0.000077     -0.000090
      2.80100      0.00000      8.40300         0.000908      0.000002     -0.005925
      0.00000      2.80100      8.40300        -0.001829     -0.000019      0.000022
      0.00000      5.60200      0.00000         0.000164     -0.001299      0.001297
      2.80100      8.40300      0.00000         0.000908     -0.005925      0.000002
      2.80100      5.60200      2.80100        -0.005036     -0.000090     -0.000077
      0.00000      8.40300      2.80100        -0.001829      0.000022     -0.000019
      0.00000      5.60200      5.60200        -0.000239     -0.001296     -0.001296
      2.80100      8.40300      5.60200        -0.000637      0.000077     -0.000002
      2.80100      5.60200      8.40300        -0.000637     -0.000002      0.000077
      0.00000      8.40300      8.40300        -0.001667      0.000020      0.000020
      5.60200      0.00000      0.00000         0.009149     -0.001287     -0.001287
      8.40300      2.80100      0.00000         0.004339     -0.005801      0.000003
      8.40300      0.00000      2.80100         0.004339      0.000003     -0.005801
      5.60200      2.80100      2.80100        -0.015047      0.000006      0.000006
      5.60200      0.00000      5.60200         0.000544     -0.001289      0.001290
      8.40300      2.80100      5.60200         0.002807      0.000073     -0.000003
      8.40300      0.00000      8.40300         0.002173      0.000003      0.005801
      5.60200      2.80100      8.40300         0.001011      0.000005     -0.000005
      5.60200      5.60200      0.00000         0.000544      0.001290     -0.001289
      8.40300      8.40300      0.00000         0.002173      0.005801      0.000003
      8.40300      5.60200      2.80100         0.002807     -0.000003      0.000073
      5.60200      8.40300      2.80100         0.001011     -0.000005      0.000005
      5.60200      5.60200      5.60200         0.000678      0.001290      0.001290
      8.40300      8.40300      5.60200         0.000645     -0.000073     -0.000003
      8.40300      5.60200      8.40300         0.000645     -0.000003     -0.000073
      5.60200      8.40300      8.40300         0.001165     -0.000004     -0.000004
      2.77100      2.80100      2.80100         0.075826     -0.001309     -0.001309
      0.00000      0.00000      2.80100         0.001070     -0.005887     -0.000116
      0.00000      2.80100      0.00000         0.001070     -0.000116     -0.005887
      2.80100      0.00000      0.00000         0.022541      0.000023      0.000023
      2.80100      2.80100      8.40300         0.001315     -0.001308      0.001301
      0.00000      0.00000      8.40300         0.005046     -0.000579      0.000119
      0.00000      2.80100      5.60200        -0.003324      0.000008      0.005881
      2.80100      0.00000      5.60200         0.002485      0.000032     -0.000029
      2.80100      8.40300      2.80100         0.001315      0.001301     -0.001308
      0.00000      5.60200      2.80100        -0.003324      0.005881      0.000008
      0.00000      8.40300      0.00000         0.005046      0.000119     -0.000579
      2.80100      5.60200      0.00000         0.002485     -0.000029      0.000032
      2.80100      8.40300      8.40300         0.000283      0.001308      0.001308
      0.00000      5.60200      8.40300         0.000642      0.000577     -0.000011
      0.00000      8.40300      5.60200         0.000642     -0.000011      0.000577
      2.80100      5.60200      5.60200         0.002314     -0.000031     -0.000031
      8.40300      2.80100      2.80100        -0.004070      0.001280      0.001280
      5.60200      0.00000      2.80100        -0.006683      0.005738     -0.000020
      5.60200      2.80100      0.00000        -0.006683     -0.000020      0.005738
      8.40300      0.00000      0.00000         0.014642     -0.000004     -0.000004
      8.40300      2.80100      8.40300        -0.002181      0.001284     -0.001280
      5.60200      0.00000      8.40300        -0.002792      0.000569      0.000016
      5.60200      2.80100      5.60200        -0.004517      0.000005     -0.005732
      8.40300      0.00000      5.60200        -0.001386     -0.000004      0.000003
      8.40300      8.40300      2.80100        -0.002181     -0.001280      0.001284
      5.60200      5.60200      2.80100        -0.004517     -0.005732      0.000005
      5.60200      8.40300      0.00000        -0.002792      0.000016      0.000569
      8.40300      5.60200      0.00000        -0.001386      0.000003     -0.000004
      8.40300      8.40300      8.40300        -0.000753     -0.001286     -0.001286
      5.60200      5.60200      8.40300        -0.000624     -0.000569     -0.000005
      5.60200      8.40300      5.60200        -0.000624     -0.000005     -0.000569
      8.40300      5.60200      5.60200        -0.001541      0.000011      0.000011
 -----------------------------------------------------------------------------------
    total drift:                                0.000355     -0.000013     -0.000011


--------------------------------------------------------------------------------------------------------



  FREE ENERGIE OF THE ION-ELECTRON SYSTEM (eV)
  ---------------------------------------------------
  free  energy   TOTEN  =      -223.90062992 eV

  energy  without entropy=     -223.90062992  energy(sigma->0) =     -223.90062992
 


--------------------------------------------------------------------------------------------------------


    POTLOK:  cpu time      0.0715: real time      0.0718


--------------------------------------------------------------------------------------------------------


     LOOP+:  cpu time    157.0790: real time    157.9262
    4ORBIT:  cpu time      0.0000: real time      0.0000

 total amount of memory used by VASP MPI-rank0   118439. kBytes
=======================================================================

   base      :      30000. kBytes
   nonl-proj :      36470. kBytes
   fftplans  :      14405. kBytes
   grid      :      19342. kBytes
   one-center:        196. kBytes
   wavefun   :      18026. kBytes
 
  
  
 General timing and accounting informations for this job:
 ========================================================
  
                  Total CPU time used (sec):      160.602
                            User time (sec):      160.108
                          System time (sec):        0.494
                         Elapsed time (sec):      161.881
  
                   Maximum memory used (kb):      303440.
                   Average memory used (kb):          N/A
  
                          Minor page faults:       110243
                          Major page faults:            0
                 Voluntary context switches:          843
