<?xml version="1.0" encoding="ISO-8859-1"?>
<modeling>
 <generator>
  <i name="program" type="string">vasp </i>
  <i name="version" type="string">6.3.2  </i>
  <i name="subversion" type="string">27Jun22 (build Oct 14 2022 12:13:54) complex                          parallel </i>
  <i name="platform" type="string">LinuxIFC </i>
  <i name="date" type="string">2025 08 28 </i>
  <i name="time" type="string">22:00:50 </i>
 </generator>
 <incar>
  <i type="string" name="PREC">Accurate</i>
  <i type="int" name="IALGO">    38</i>
  <i type="logical" name="ADDGRID"> T  </i>
  <i type="int" name="NELMIN">     5</i>
  <i type="int" name="IBRION">    -1</i>
  <i name="EDIFF">      0.00000001</i>
  <i name="ENCUT">    341.21360000</i>
  <i type="logical" name="LREAL"> F  </i>
  <i type="int" name="ISMEAR">     0</i>
  <i name="SIGMA">      0.02000000</i>
  <i type="logical" name="LWAVE"> F  </i>
  <i type="logical" name="LCHARG"> F  </i>
  <i type="string" name="GGA">PS</i>
 </incar>
 <primitive_cell>
  <structure name="primitive_cell" >
   <crystal>
    <varray name="basis" >
     <v>      11.20400236       0.00000000       0.00000000 </v>
     <v>       0.00000000      11.20400236       0.00000000 </v>
     <v>       0.00000000       0.00000000      11.20400236 </v>
    </varray>
    <i name="volume">   1406.43470641 </i>
    <varray name="rec_basis" >
     <v>       0.08925382       0.00000000       0.00000000 </v>
     <v>       0.00000000       0.08925382       0.00000000 </v>
     <v>       0.00000000       0.00000000       0.08925382 </v>
    </varray>
   </crystal>
   <varray name="positions" >
    <v>       0.00267761       0.00000000       0.00000000 </v>
    <v>       0.25000000       0.25000000       0.00000000 </v>
    <v>       0.25000000       0.00000000       0.25000000 </v>
    <v>       0.00000000       0.25000000       0.25000000 </v>
    <v>       0.00000000       0.00000000       0.50000000 </v>
    <v>       0.25000000       0.25000000       0.50000000 </v>
    <v>       0.25000000       0.00000000       0.75000000 </v>
    <v>       0.00000000       0.25000000       0.75000000 </v>
    <v>       0.00000000       0.50000000       0.00000000 </v>
    <v>       0.25000000       0.75000000       0.00000000 </v>
    <v>       0.25000000       0.50000000       0.25000000 </v>
    <v>       0.00000000       0.75000000       0.25000000 </v>
    <v>       0.00000000       0.50000000       0.50000000 </v>
    <v>       0.25000000       0.75000000       0.50000000 </v>
    <v>       0.25000000       0.50000000       0.75000000 </v>
    <v>       0.00000000       0.75000000       0.75000000 </v>
    <v>       0.50000000       0.00000000       0.00000000 </v>
    <v>       0.75000000       0.25000000       0.00000000 </v>
    <v>       0.75000000       0.00000000       0.25000000 </v>
    <v>       0.50000000       0.25000000       0.25000000 </v>
    <v>       0.50000000       0.00000000       0.50000000 </v>
    <v>       0.75000000       0.25000000       0.50000000 </v>
    <v>       0.75000000       0.00000000       0.75000000 </v>
    <v>       0.50000000       0.25000000       0.75000000 </v>
    <v>       0.50000000       0.50000000       0.00000000 </v>
    <v>       0.75000000       0.75000000       0.00000000 </v>
    <v>       0.75000000       0.50000000       0.25000000 </v>
    <v>       0.50000000       0.75000000       0.25000000 </v>
    <v>       0.50000000       0.50000000       0.50000000 </v>
    <v>       0.75000000       0.75000000       0.50000000 </v>
    <v>       0.75000000       0.50000000       0.75000000 </v>
    <v>       0.50000000       0.75000000       0.75000000 </v>
    <v>       0.24732239       0.25000000       0.25000000 </v>
    <v>       0.00000000       0.00000000       0.25000000 </v>
    <v>       0.00000000       0.25000000       0.00000000 </v>
    <v>       0.25000000       0.00000000       0.00000000 </v>
    <v>       0.25000000       0.25000000       0.75000000 </v>
    <v>       0.00000000       0.00000000       0.75000000 </v>
    <v>       0.00000000       0.25000000       0.50000000 </v>
    <v>       0.25000000       0.00000000       0.50000000 </v>
    <v>       0.25000000       0.75000000       0.25000000 </v>
    <v>       0.00000000       0.50000000       0.25000000 </v>
    <v>       0.00000000       0.75000000       0.00000000 </v>
    <v>       0.25000000       0.50000000       0.00000000 </v>
    <v>       0.25000000       0.75000000       0.75000000 </v>
    <v>       0.00000000       0.50000000       0.75000000 </v>
    <v>       0.00000000       0.75000000       0.50000000 </v>
    <v>       0.25000000       0.50000000       0.50000000 </v>
    <v>       0.75000000       0.25000000       0.25000000 </v>
    <v>       0.50000000       0.00000000       0.25000000 </v>
    <v>       0.50000000       0.25000000       0.00000000 </v>
    <v>       0.75000000       0.00000000       0.00000000 </v>
    <v>       0.75000000       0.25000000       0.75000000 </v>
    <v>       0.50000000       0.00000000       0.75000000 </v>
    <v>       0.50000000       0.25000000       0.50000000 </v>
    <v>       0.75000000       0.00000000       0.50000000 </v>
    <v>       0.75000000       0.75000000       0.25000000 </v>
    <v>       0.50000000       0.50000000       0.25000000 </v>
    <v>       0.50000000       0.75000000       0.00000000 </v>
    <v>       0.75000000       0.50000000       0.00000000 </v>
    <v>       0.75000000       0.75000000       0.75000000 </v>
    <v>       0.50000000       0.50000000       0.75000000 </v>
    <v>       0.50000000       0.75000000       0.50000000 </v>
    <v>       0.75000000       0.50000000       0.50000000 </v>
   </varray>
  </structure>
  <varray name="primitive_index" >
   <v type="int" >        1 </v>
   <v type="int" >        2 </v>
   <v type="int" >        3 </v>
   <v type="int" >        4 </v>
   <v type="int" >        5 </v>
   <v type="int" >        6 </v>
   <v type="int" >        7 </v>
   <v type="int" >        8 </v>
   <v type="int" >        9 </v>
   <v type="int" >       10 </v>
   <v type="int" >       11 </v>
   <v type="int" >       12 </v>
   <v type="int" >       13 </v>
   <v type="int" >       14 </v>
   <v type="int" >       15 </v>
   <v type="int" >       16 </v>
   <v type="int" >       17 </v>
   <v type="int" >       18 </v>
   <v type="int" >       19 </v>
   <v type="int" >       20 </v>
   <v type="int" >       21 </v>
   <v type="int" >       22 </v>
   <v type="int" >       23 </v>
   <v type="int" >       24 </v>
   <v type="int" >       25 </v>
   <v type="int" >       26 </v>
   <v type="int" >       27 </v>
   <v type="int" >       28 </v>
   <v type="int" >       29 </v>
   <v type="int" >       30 </v>
   <v type="int" >       31 </v>
   <v type="int" >       32 </v>
   <v type="int" >       33 </v>
   <v type="int" >       34 </v>
   <v type="int" >       35 </v>
   <v type="int" >       36 </v>
   <v type="int" >       37 </v>
   <v type="int" >       38 </v>
   <v type="int" >       39 </v>
   <v type="int" >       40 </v>
   <v type="int" >       41 </v>
   <v type="int" >       42 </v>
   <v type="int" >       43 </v>
   <v type="int" >       44 </v>
   <v type="int" >       45 </v>
   <v type="int" >       46 </v>
   <v type="int" >       47 </v>
   <v type="int" >       48 </v>
   <v type="int" >       49 </v>
   <v type="int" >       50 </v>
   <v type="int" >       51 </v>
   <v type="int" >       52 </v>
   <v type="int" >       53 </v>
   <v type="int" >       54 </v>
   <v type="int" >       55 </v>
   <v type="int" >       56 </v>
   <v type="int" >       57 </v>
   <v type="int" >       58 </v>
   <v type="int" >       59 </v>
   <v type="int" >       60 </v>
   <v type="int" >       61 </v>
   <v type="int" >       62 </v>
   <v type="int" >       63 </v>
   <v type="int" >       64 </v>
  </varray>
 </primitive_cell>
 <kpoints>
  <generation param="Gamma">
   <v type="int" name="divisions">       2        2        2 </v>
   <v name="usershift">      0.00000000       0.00000000       0.00000000 </v>
   <v name="genvec1">      0.50000000       0.00000000       0.00000000 </v>
   <v name="genvec2">      0.00000000       0.50000000       0.00000000 </v>
   <v name="genvec3">      0.00000000       0.00000000       0.50000000 </v>
   <v name="shift">      0.00000000       0.00000000       0.00000000 </v>
  </generation>
  <varray name="kpointlist" >
   <v>       0.00000000       0.00000000       0.00000000 </v>
   <v>       0.50000000       0.00000000       0.00000000 </v>
   <v>       0.00000000       0.50000000       0.00000000 </v>
   <v>       0.50000000       0.50000000       0.00000000 </v>
   <v>       0.00000000       0.50000000       0.50000000 </v>
   <v>       0.50000000       0.50000000       0.50000000 </v>
  </varray>
  <varray name="weights" >
   <v>       0.12500000 </v>
   <v>       0.12500000 </v>
   <v>       0.25000000 </v>
   <v>       0.25000000 </v>
   <v>       0.12500000 </v>
   <v>       0.12500000 </v>
  </varray>
 </kpoints>
 <parameters>
  <separator name="general" >
   <i type="string" name="SYSTEM">unknown system</i>
   <i type="logical" name="LCOMPAT"> F  </i>
  </separator>
  <separator name="electronic" >
   <i type="string" name="PREC">accura</i>
   <i name="ENMAX">    341.21360000</i>
   <i name="ENAUG">    368.05600000</i>
   <i name="EDIFF">      0.00000001</i>
   <i type="int" name="IALGO">    38</i>
   <i type="int" name="IWAVPR">    10</i>
   <i type="int" name="NBANDS">   288</i>
   <i type="int" name="NBANDSLOW">    -1</i>
   <i type="int" name="NBANDSHIGH">    -1</i>
   <i name="NELECT">    448.00000000</i>
   <i type="int" name="TURBO">     0</i>
   <i type="int" name="IRESTART">     0</i>
   <i type="int" name="NREBOOT">     0</i>
   <i type="int" name="NMIN">     0</i>
   <i name="EREF">      0.00000000</i>
   <separator name="electronic smearing" >
    <i type="int" name="ISMEAR">     0</i>
    <i name="SIGMA">      0.02000000</i>
    <i name="KSPACING">      0.50000000</i>
    <i type="logical" name="KGAMMA"> T  </i>
    <i type="logical" name="KBLOWUP"> T  </i>
   </separator>
   <separator name="electronic projectors" >
    <i type="logical" name="LREAL"> F  </i>
    <v name="ROPT">      0.00000000      0.00000000</v>
    <i type="int" name="LMAXPAW">  -100</i>
    <i type="int" name="LMAXMIX">     2</i>
    <i type="logical" name="NLSPLINE"> F  </i>
   </separator>
   <separator name="electronic startup" >
    <i type="int" name="ISTART">     0</i>
    <i type="int" name="ICHARG">     2</i>
    <i type="int" name="INIWAV">     1</i>
   </separator>
   <separator name="electronic spin" >
    <i type="int" name="ISPIN">     1</i>
    <i type="logical" name="LNONCOLLINEAR"> F  </i>
    <v name="MAGMOM">      1.00000000      1.00000000      1.00000000      1.00000000      1.00000000      1.00000000      1.00000000      1.00000000      1.00000000      1.00000000      1.00000000      1.00000000      1.00000000      1.00000000      1.00000000      1.00000000      1.00000000      1.00000000      1.00000000      1.00000000
      1.00000000      1.00000000      1.00000000      1.00000000      1.00000000      1.00000000      1.00000000      1.00000000      1.00000000      1.00000000      1.00000000      1.00000000      1.00000000      1.00000000      1.00000000      1.00000000      1.00000000      1.00000000      1.00000000      1.00000000
      1.00000000      1.00000000      1.00000000      1.00000000      1.00000000      1.00000000      1.00000000      1.00000000      1.00000000      1.00000000      1.00000000      1.00000000      1.00000000      1.00000000      1.00000000      1.00000000      1.00000000      1.00000000      1.00000000      1.00000000
      1.00000000      1.00000000      1.00000000      1.00000000</v>
    <i name="NUPDOWN">     -1.00000000</i>
    <i type="logical" name="LSORBIT"> F  </i>
    <v name="SAXIS">      0.00000000      0.00000000      1.00000000</v>
    <i type="logical" name="LSPIRAL"> F  </i>
    <v name="QSPIRAL">      0.00000000      0.00000000      0.00000000</v>
    <i type="logical" name="LZEROZ"> F  </i>
   </separator>
   <separator name="electronic exchange-correlation" >
    <i type="logical" name="LASPH"> F  </i>
    <i type="logical" name="LMETAGGA"> F  </i>
   </separator>
   <separator name="electronic convergence" >
    <i type="int" name="NELM">    60</i>
    <i type="int" name="NELMDL">    -5</i>
    <i type="int" name="NELMIN">     5</i>
    <i name="ENINI">    341.21360000</i>
    <separator name="electronic convergence detail" >
     <i type="logical" name="LDIAG"> T  </i>
     <i type="logical" name="LSUBROT"> F  </i>
     <i name="WEIMIN">      0.00000000</i>
     <i name="EBREAK">      0.00000000</i>
     <i name="DEPER">      0.30000000</i>
     <i type="int" name="NRMM">     4</i>
     <i name="TIME">      0.40000000</i>
    </separator>
   </separator>
   <separator name="electronic mixer" >
    <i name="AMIX">      0.40000000</i>
    <i name="BMIX">      1.00000000</i>
    <i name="AMIN">      0.10000000</i>
    <i name="AMIX_MAG">      1.60000000</i>
    <i name="BMIX_MAG">      1.00000000</i>
    <separator name="electronic mixer details" >
     <i type="int" name="IMIX">     4</i>
     <i type="logical" name="MIXFIRST"> F  </i>
     <i type="int" name="MAXMIX">   -45</i>
     <i name="WC">    100.00000000</i>
     <i type="int" name="INIMIX">     1</i>
     <i type="int" name="MIXPRE">     1</i>
     <i type="int" name="MREMOVE">     5</i>
    </separator>
   </separator>
   <separator name="electronic dipolcorrection" >
    <i type="logical" name="LDIPOL"> F  </i>
    <i type="logical" name="LMONO"> F  </i>
    <i type="int" name="IDIPOL">     0</i>
    <i name="EPSILON">      1.00000000</i>
    <v name="DIPOL">   -100.00000000   -100.00000000   -100.00000000</v>
    <i name="EFIELD">      0.00000000</i>
   </separator>
  </separator>
  <separator name="grids" >
   <i type="int" name="NGX">    70</i>
   <i type="int" name="NGY">    70</i>
   <i type="int" name="NGZ">    70</i>
   <i type="int" name="NGXF">   140</i>
   <i type="int" name="NGYF">   140</i>
   <i type="int" name="NGZF">   140</i>
   <i type="logical" name="ADDGRID"> T  </i>
  </separator>
  <separator name="ionic" >
   <i type="int" name="NSW">     0</i>
   <i type="int" name="IBRION">    -1</i>
   <i type="int" name="MDALGO">     0</i>
   <i type="int" name="ISIF">     2</i>
   <i name="PSTRESS">      0.00000000</i>
   <i name="EDIFFG">      0.00000010</i>
   <i type="int" name="NFREE">     0</i>
   <i name="POTIM">      0.50000000</i>
   <i name="SMASS">     -3.00000000</i>
   <i name="SCALEE">      1.00000000</i>
  </separator>
  <separator name="ionic md" >
   <i name="TEBEG">      0.00010000</i>
   <i name="TEEND">      0.00010000</i>
   <i type="int" name="NBLOCK">     1</i>
   <i type="int" name="KBLOCK">     1</i>
   <i type="int" name="NPACO">   256</i>
   <i name="APACO">     10.00000000</i>
  </separator>
  <separator name="symmetry" >
   <i type="int" name="ISYM">     2</i>
   <i name="SYMPREC">      0.00001000</i>
  </separator>
  <separator name="dos" >
   <i type="int" name="LORBIT">     0</i>
   <v name="RWIGS">     -1.00000000     -1.00000000</v>
   <i type="int" name="NEDOS">   301</i>
   <i name="EMIN">     10.00000000</i>
   <i name="EMAX">    -10.00000000</i>
   <i name="EFERMI">      0.00000000</i>
  </separator>
  <separator name="writing" >
   <i type="int" name="NWRITE">     2</i>
   <i type="logical" name="LWAVE"> F  </i>
   <i type="logical" name="LDOWNSAMPLE"> F  </i>
   <i type="logical" name="LCHARG"> F  </i>
   <i type="logical" name="LPARD"> F  </i>
   <i type="logical" name="LVTOT"> F  </i>
   <i type="logical" name="LVHAR"> F  </i>
   <i type="logical" name="LELF"> F  </i>
   <i type="logical" name="LOPTICS"> F  </i>
   <v name="STM">      0.00000000      0.00000000      0.00000000      0.00000000      0.00000000      0.00000000      0.00000000</v>
  </separator>
  <separator name="performance" >
   <i type="int" name="NPAR">    32</i>
   <i type="int" name="NSIM">     4</i>
   <i type="int" name="NBLK">    -1</i>
   <i type="logical" name="LPLANE"> T  </i>
   <i type="logical" name="LSCALAPACK"> T  </i>
   <i type="logical" name="LSCAAWARE"> F  </i>
   <i type="logical" name="LSCALU"> F  </i>
   <i type="logical" name="LASYNC"> F  </i>
   <i type="logical" name="LORBITALREAL"> F  </i>
  </separator>
  <separator name="miscellaneous" >
   <i type="int" name="IDIOT">     3</i>
   <i type="int" name="PHON_NSTRUCT">    -1</i>
   <i type="logical" name="LMUSIC"> F  </i>
   <v name="POMASS">     22.99000000     35.45300000</v>
   <v name="DARWINR">      0.00000000      0.00000000</v>
   <v name="DARWINV">      1.00000000      1.00000000</v>
   <i type="logical" name="LCORR"> T  </i>
  </separator>
  <i type="logical" name="GGA_COMPAT"> T  </i>
  <i type="logical" name="LBERRY"> F  </i>
  <i type="int" name="ICORELEVEL">     0</i>
  <i type="logical" name="LDAU"> F  </i>
  <i type="int" name="I_CONSTRAINED_M">     0</i>
  <separator name="electronic exchange-correlation" >
   <i type="string" name="GGA">PS</i>
   <i type="int" name="VOSKOWN">     0</i>
   <i type="logical" name="LHFCALC"> F  </i>
   <i type="string" name="PRECFOCK"></i>
   <i type="logical" name="LSYMGRAD"> F  </i>
   <i type="logical" name="LHFONE"> F  </i>
   <i type="logical" name="LRHFCALC"> F  </i>
   <i type="logical" name="LTHOMAS"> F  </i>
   <i type="logical" name="LMODELHF"> F  </i>
   <i type="logical" name="LFOCKACE"> F  </i>
   <i name="ENCUT4O">     -1.00000000</i>
   <i type="int" name="EXXOEP">     0</i>
   <i type="int" name="FOURORBIT">     0</i>
   <i name="AEXX">      0.00000000</i>
   <i name="HFALPHA">      0.00000000</i>
   <i name="MCALPHA">      0.00000000</i>
   <i name="ALDAX">      1.00000000</i>
   <i name="AGGAX">      1.00000000</i>
   <i name="ALDAC">      1.00000000</i>
   <i name="AGGAC">      1.00000000</i>
   <i type="int" name="NKREDX">     1</i>
   <i type="int" name="NKREDY">     1</i>
   <i type="int" name="NKREDZ">     1</i>
   <i type="logical" name="SHIFTRED"> F  </i>
   <i type="logical" name="ODDONLY"> F  </i>
   <i type="logical" name="EVENONLY"> F  </i>
   <i type="int" name="LMAXFOCK">     0</i>
   <i type="int" name="NMAXFOCKAE">     0</i>
   <i type="logical" name="LFOCKAEDFT"> F  </i>
   <i name="HFSCREEN">      0.00000000</i>
   <i name="HFSCREENC">      0.00000000</i>
   <i type="int" name="NBANDSGWLOW">     0</i>
  </separator>
  <separator name="vdW DFT" >
   <i type="logical" name="LUSE_VDW"> F  </i>
   <i name="Zab_VDW">     -0.84910000</i>
   <i name="PARAM1">      0.12340000</i>
   <i name="PARAM2">      1.00000000</i>
   <i name="PARAM3">      0.00000000</i>
  </separator>
  <separator name="model GW" >
   <i type="int" name="MODEL_GW">     0</i>
   <i name="MODEL_EPS0">     13.18532537</i>
   <i name="MODEL_ALPHA">      1.00000000</i>
  </separator>
  <separator name="linear response parameters" >
   <i type="logical" name="LEPSILON"> F  </i>
   <i type="logical" name="LRPA"> F  </i>
   <i type="logical" name="LNABLA"> F  </i>
   <i type="logical" name="LVEL"> F  </i>
   <i name="CSHIFT">      0.10000000</i>
   <i name="OMEGAMAX">     -1.00000000</i>
   <i name="DEG_THRESHOLD">      0.00200000</i>
   <i name="RTIME">     -0.10000000</i>
   <i name="WPLASMAI">      0.00000000</i>
   <v name="DFIELD">      0.00000000      0.00000000      0.00000000</v>
   <v name="WPLASMA">      0.00000000      0.00000000      0.00000000      0.00000000      0.00000000      0.00000000      0.00000000      0.00000000      0.00000000</v>
  </separator>
  <separator name="orbital magnetization" >
   <i type="logical" name="NUCIND"> F  </i>
   <v name="MAGPOS">      0.00000000      0.00000000      0.00000000</v>
   <i type="logical" name="LNICSALL"> T  </i>
   <i type="logical" name="ORBITALMAG"> F  </i>
   <i type="logical" name="LMAGBLOCH"> F  </i>
   <i type="logical" name="LCHIMAG"> F  </i>
   <i type="logical" name="LGAUGE"> T  </i>
   <i type="int" name="MAGATOM">     0</i>
   <v name="MAGDIPOL">      0.00000000      0.00000000      0.00000000</v>
   <v name="AVECCONST">      0.00000000      0.00000000      0.00000000</v>
  </separator>
  <separator name="response functions" >
   <i type="logical" name="LFINITE_TEMPERATURE"> F  </i>
   <i type="logical" name="LADDER"> F  </i>
   <i type="logical" name="LRPAFORCE"> F  </i>
   <i type="logical" name="LFXC"> F  </i>
   <i type="logical" name="LHARTREE"> T  </i>
   <i type="int" name="IBSE">     0</i>
   <v type="int" name="KPOINT">    -1     0     0     0</v>
   <i type="logical" name="LTCTC"> F  </i>
   <i type="logical" name="LTCTE"> F  </i>
   <i type="logical" name="LTETE"> F  </i>
   <i type="logical" name="LTRIPLET"> F  </i>
   <i type="logical" name="LFXCEPS"> F  </i>
   <i type="logical" name="LFXHEG"> F  </i>
   <i type="int" name="NATURALO">     2</i>
   <i type="logical" name="LHOLEGF"> F  </i>
   <i type="logical" name="L2ORDER"> F  </i>
   <i type="logical" name="LDMP1"> F  </i>
   <i type="logical" name="LMP2LT"> F  </i>
   <i type="logical" name="LSMP2LT"> F  </i>
   <i type="logical" name="LGWLF"> F  </i>
   <i name="ENCUTGW">     -2.00000000</i>
   <i name="ENCUTGWSOFT">     -2.00000000</i>
   <i name="ENCUTLF">     -1.00000000</i>
   <i type="logical" name="LESF_SPLINES"> F  </i>
   <i type="int" name="LMAXMP2">    -1</i>
   <i name="SCISSOR">      0.00000000</i>
   <i type="int" name="NOMEGA">     0</i>
   <i type="int" name="NOMEGAR">     0</i>
   <i type="int" name="NBANDSGW">    -1</i>
   <i type="int" name="NBANDSO">    -1</i>
   <i type="int" name="NBANDSV">    -1</i>
   <i type="int" name="NELMGW">     1</i>
   <i type="int" name="NELMHF">     1</i>
   <i type="int" name="DIM">     3</i>
   <i type="int" name="IESPILON">     4</i>
   <i type="int" name="ANTIRES">     0</i>
   <i name="OMEGAMAX">    -30.00000000</i>
   <i name="OMEGAMIN">    -30.00000000</i>
   <i name="OMEGATL">   -200.00000000</i>
   <i type="int" name="OMEGAGRID">     0</i>
   <i name="CSHIFT">     -0.10000000</i>
   <i type="logical" name="LSELFENERGY"> F  </i>
   <i type="logical" name="LSPECTRAL"> F  </i>
   <i type="logical" name="LSPECTRALGW"> F  </i>
   <i type="logical" name="LSINGLES"> F  </i>
   <i type="logical" name="LFERMIGW"> F  </i>
   <i type="logical" name="ODDONLYGW"> F  </i>
   <i type="logical" name="EVENONLYGW"> F  </i>
   <i type="int" name="NKREDLFX">     1</i>
   <i type="int" name="NKREDLFY">     1</i>
   <i type="int" name="NKREDLFZ">     1</i>
   <i type="int" name="MAXMEM">  2800</i>
   <i type="int" name="TELESCOPE">     0</i>
   <i type="int" name="NTAUPAR">    -1</i>
   <i type="int" name="NOMEGAPAR">    -1</i>
   <i name="DAMP_NEWTON">      0.80000001</i>
   <i name="LAMBDA">      1.00000000</i>
  </separator>
  <separator name="External order field" >
   <i name="OFIELD_KAPPA">      0.00000000</i>
   <v name="OFIELD_K">      0.00000000      0.00000000      0.00000000</v>
   <i name="OFIELD_Q6_NEAR">      0.00000000</i>
   <i name="OFIELD_Q6_FAR">      0.00000000</i>
   <i name="OFIELD_A">      0.00000000</i>
  </separator>
  <separator name="optional k-points parameters" >
   <i type="int" name="KPOINTS_OPT_MODE">     1</i>
   <i type="logical" name="LKPOINTS_OPT"> F  </i>
  </separator>
 </parameters>
 <atominfo>
  <atoms>      64 </atoms>
  <types>       2 </types>
  <array name="atoms" >
   <dimension dim="1">ion</dimension>
   <field type="string">element</field>
   <field type="int">atomtype</field>
   <set>
    <rc><c>Na</c><c>   1</c></rc>
    <rc><c>Na</c><c>   1</c></rc>
    <rc><c>Na</c><c>   1</c></rc>
    <rc><c>Na</c><c>   1</c></rc>
    <rc><c>Na</c><c>   1</c></rc>
    <rc><c>Na</c><c>   1</c></rc>
    <rc><c>Na</c><c>   1</c></rc>
    <rc><c>Na</c><c>   1</c></rc>
    <rc><c>Na</c><c>   1</c></rc>
    <rc><c>Na</c><c>   1</c></rc>
    <rc><c>Na</c><c>   1</c></rc>
    <rc><c>Na</c><c>   1</c></rc>
    <rc><c>Na</c><c>   1</c></rc>
    <rc><c>Na</c><c>   1</c></rc>
    <rc><c>Na</c><c>   1</c></rc>
    <rc><c>Na</c><c>   1</c></rc>
    <rc><c>Na</c><c>   1</c></rc>
    <rc><c>Na</c><c>   1</c></rc>
    <rc><c>Na</c><c>   1</c></rc>
    <rc><c>Na</c><c>   1</c></rc>
    <rc><c>Na</c><c>   1</c></rc>
    <rc><c>Na</c><c>   1</c></rc>
    <rc><c>Na</c><c>   1</c></rc>
    <rc><c>Na</c><c>   1</c></rc>
    <rc><c>Na</c><c>   1</c></rc>
    <rc><c>Na</c><c>   1</c></rc>
    <rc><c>Na</c><c>   1</c></rc>
    <rc><c>Na</c><c>   1</c></rc>
    <rc><c>Na</c><c>   1</c></rc>
    <rc><c>Na</c><c>   1</c></rc>
    <rc><c>Na</c><c>   1</c></rc>
    <rc><c>Na</c><c>   1</c></rc>
    <rc><c>Cl</c><c>   2</c></rc>
    <rc><c>Cl</c><c>   2</c></rc>
    <rc><c>Cl</c><c>   2</c></rc>
    <rc><c>Cl</c><c>   2</c></rc>
    <rc><c>Cl</c><c>   2</c></rc>
    <rc><c>Cl</c><c>   2</c></rc>
    <rc><c>Cl</c><c>   2</c></rc>
    <rc><c>Cl</c><c>   2</c></rc>
    <rc><c>Cl</c><c>   2</c></rc>
    <rc><c>Cl</c><c>   2</c></rc>
    <rc><c>Cl</c><c>   2</c></rc>
    <rc><c>Cl</c><c>   2</c></rc>
    <rc><c>Cl</c><c>   2</c></rc>
    <rc><c>Cl</c><c>   2</c></rc>
    <rc><c>Cl</c><c>   2</c></rc>
    <rc><c>Cl</c><c>   2</c></rc>
    <rc><c>Cl</c><c>   2</c></rc>
    <rc><c>Cl</c><c>   2</c></rc>
    <rc><c>Cl</c><c>   2</c></rc>
    <rc><c>Cl</c><c>   2</c></rc>
    <rc><c>Cl</c><c>   2</c></rc>
    <rc><c>Cl</c><c>   2</c></rc>
    <rc><c>Cl</c><c>   2</c></rc>
    <rc><c>Cl</c><c>   2</c></rc>
    <rc><c>Cl</c><c>   2</c></rc>
    <rc><c>Cl</c><c>   2</c></rc>
    <rc><c>Cl</c><c>   2</c></rc>
    <rc><c>Cl</c><c>   2</c></rc>
    <rc><c>Cl</c><c>   2</c></rc>
    <rc><c>Cl</c><c>   2</c></rc>
    <rc><c>Cl</c><c>   2</c></rc>
    <rc><c>Cl</c><c>   2</c></rc>
   </set>
  </array>
  <array name="atomtypes" >
   <dimension dim="1">type</dimension>
   <field type="int">atomspertype</field>
   <field type="string">element</field>
   <field>mass</field>
   <field>valence</field>
   <field type="string">pseudopotential</field>
   <set>
    <rc><c>  32</c><c>Na</c><c>     22.99000000</c><c>      7.00000000</c><c>  PAW_PBE Na_pv 19Sep2006               </c></rc>
    <rc><c>  32</c><c>Cl</c><c>     35.45300000</c><c>      7.00000000</c><c>  PAW_PBE Cl 06Sep2000                  </c></rc>
   </set>
  </array>
 </atominfo>
 <structure name="initialpos" >
  <crystal>
   <varray name="basis" >
    <v>      11.20400236       0.00000000       0.00000000 </v>
    <v>       0.00000000      11.20400236       0.00000000 </v>
    <v>       0.00000000       0.00000000      11.20400236 </v>
   </varray>
   <i name="volume">   1406.43470641 </i>
   <varray name="rec_basis" >
    <v>       0.08925382       0.00000000       0.00000000 </v>
    <v>       0.00000000       0.08925382       0.00000000 </v>
    <v>       0.00000000       0.00000000       0.08925382 </v>
   </varray>
  </crystal>
  <varray name="positions" >
   <v>       0.00267761       0.00000000       0.00000000 </v>
   <v>       0.25000000       0.25000000       0.00000000 </v>
   <v>       0.25000000       0.00000000       0.25000000 </v>
   <v>       0.00000000       0.25000000       0.25000000 </v>
   <v>       0.00000000       0.00000000       0.50000000 </v>
   <v>       0.25000000       0.25000000       0.50000000 </v>
   <v>       0.25000000       0.00000000       0.75000000 </v>
   <v>       0.00000000       0.25000000       0.75000000 </v>
   <v>       0.00000000       0.50000000       0.00000000 </v>
   <v>       0.25000000       0.75000000       0.00000000 </v>
   <v>       0.25000000       0.50000000       0.25000000 </v>
   <v>       0.00000000       0.75000000       0.25000000 </v>
   <v>       0.00000000       0.50000000       0.50000000 </v>
   <v>       0.25000000       0.75000000       0.50000000 </v>
   <v>       0.25000000       0.50000000       0.75000000 </v>
   <v>       0.00000000       0.75000000       0.75000000 </v>
   <v>       0.50000000       0.00000000       0.00000000 </v>
   <v>       0.75000000       0.25000000       0.00000000 </v>
   <v>       0.75000000       0.00000000       0.25000000 </v>
   <v>       0.50000000       0.25000000       0.25000000 </v>
   <v>       0.50000000       0.00000000       0.50000000 </v>
   <v>       0.75000000       0.25000000       0.50000000 </v>
   <v>       0.75000000       0.00000000       0.75000000 </v>
   <v>       0.50000000       0.25000000       0.75000000 </v>
   <v>       0.50000000       0.50000000       0.00000000 </v>
   <v>       0.75000000       0.75000000       0.00000000 </v>
   <v>       0.75000000       0.50000000       0.25000000 </v>
   <v>       0.50000000       0.75000000       0.25000000 </v>
   <v>       0.50000000       0.50000000       0.50000000 </v>
   <v>       0.75000000       0.75000000       0.50000000 </v>
   <v>       0.75000000       0.50000000       0.75000000 </v>
   <v>       0.50000000       0.75000000       0.75000000 </v>
   <v>       0.24732239       0.25000000       0.25000000 </v>
   <v>       0.00000000       0.00000000       0.25000000 </v>
   <v>       0.00000000       0.25000000       0.00000000 </v>
   <v>       0.25000000       0.00000000       0.00000000 </v>
   <v>       0.25000000       0.25000000       0.75000000 </v>
   <v>       0.00000000       0.00000000       0.75000000 </v>
   <v>       0.00000000       0.25000000       0.50000000 </v>
   <v>       0.25000000       0.00000000       0.50000000 </v>
   <v>       0.25000000       0.75000000       0.25000000 </v>
   <v>       0.00000000       0.50000000       0.25000000 </v>
   <v>       0.00000000       0.75000000       0.00000000 </v>
   <v>       0.25000000       0.50000000       0.00000000 </v>
   <v>       0.25000000       0.75000000       0.75000000 </v>
   <v>       0.00000000       0.50000000       0.75000000 </v>
   <v>       0.00000000       0.75000000       0.50000000 </v>
   <v>       0.25000000       0.50000000       0.50000000 </v>
   <v>       0.75000000       0.25000000       0.25000000 </v>
   <v>       0.50000000       0.00000000       0.25000000 </v>
   <v>       0.50000000       0.25000000       0.00000000 </v>
   <v>       0.75000000       0.00000000       0.00000000 </v>
   <v>       0.75000000       0.25000000       0.75000000 </v>
   <v>       0.50000000       0.00000000       0.75000000 </v>
   <v>       0.50000000       0.25000000       0.50000000 </v>
   <v>       0.75000000       0.00000000       0.50000000 </v>
   <v>       0.75000000       0.75000000       0.25000000 </v>
   <v>       0.50000000       0.50000000       0.25000000 </v>
   <v>       0.50000000       0.75000000       0.00000000 </v>
   <v>       0.75000000       0.50000000       0.00000000 </v>
   <v>       0.75000000       0.75000000       0.75000000 </v>
   <v>       0.50000000       0.50000000       0.75000000 </v>
   <v>       0.50000000       0.75000000       0.50000000 </v>
   <v>       0.75000000       0.50000000       0.50000000 </v>
  </varray>
 </structure>
 <calculation>
  <scstep>
   <time name="dav">    7.25    7.29</time>
   <time name="total">    7.33    7.37</time>
   <energy>
    <i name="alphaZ">    751.52672365 </i>
    <i name="ewald"> -22871.33844468 </i>
    <i name="hartreedc">  -8992.24812660 </i>
    <i name="XCdc">   1456.53426702 </i>
    <i name="pawpsdc">  26466.43774078 </i>
    <i name="pawaedc"> -29286.08056155 </i>
    <i name="eentropy">     -0.00297382 </i>
    <i name="bandstr">   -740.39921017 </i>
    <i name="atom">  37532.17946992 </i>
    <i name="e_fr_energy">   4316.60888456 </i>
    <i name="e_wo_entrp">   4316.61185837 </i>
    <i name="e_0_energy">   4316.61037146 </i>
   </energy>
  </scstep>
  <scstep>
   <time name="dav">    7.89    7.93</time>
   <time name="total">    7.89    7.93</time>
   <energy>
    <i name="e_fr_energy">    363.23532008 </i>
    <i name="e_wo_entrp">    363.23532008 </i>
    <i name="e_0_energy">    363.23532008 </i>
   </energy>
  </scstep>
  <scstep>
   <time name="dav">    8.48    8.52</time>
   <time name="total">    8.48    8.52</time>
   <energy>
    <i name="e_fr_energy">   -206.23314133 </i>
    <i name="e_wo_entrp">   -206.23314133 </i>
    <i name="e_0_energy">   -206.23314133 </i>
   </energy>
  </scstep>
  <scstep>
   <time name="dav">    8.43    8.48</time>
   <time name="total">    8.43    8.48</time>
   <energy>
    <i name="e_fr_energy">   -228.19439164 </i>
    <i name="e_wo_entrp">   -228.19439164 </i>
    <i name="e_0_energy">   -228.19439164 </i>
   </energy>
  </scstep>
  <scstep>
   <time name="dav">    8.62    8.66</time>
   <time name="total">    8.89    8.94</time>
   <energy>
    <i name="e_fr_energy">   -229.00539360 </i>
    <i name="e_wo_entrp">   -229.00539360 </i>
    <i name="e_0_energy">   -229.00539360 </i>
   </energy>
  </scstep>
  <scstep>
   <time name="dav">    8.65    8.70</time>
   <time name="total">    8.99    9.04</time>
   <energy>
    <i name="e_fr_energy">   -224.13780068 </i>
    <i name="e_wo_entrp">   -224.13780068 </i>
    <i name="e_0_energy">   -224.13780068 </i>
   </energy>
  </scstep>
  <scstep>
   <time name="dav">    9.38    9.43</time>
   <time name="total">    9.72    9.77</time>
   <energy>
    <i name="e_fr_energy">   -223.77730180 </i>
    <i name="e_wo_entrp">   -223.77730180 </i>
    <i name="e_0_energy">   -223.77730180 </i>
   </energy>
  </scstep>
  <scstep>
   <time name="dav">    8.15    8.19</time>
   <time name="total">    8.49    8.54</time>
   <energy>
    <i name="e_fr_energy">   -223.90250045 </i>
    <i name="e_wo_entrp">   -223.90250045 </i>
    <i name="e_0_energy">   -223.90250045 </i>
   </energy>
  </scstep>
  <scstep>
   <time name="dav">    8.60    8.65</time>
   <time name="total">    8.94    8.99</time>
   <energy>
    <i name="e_fr_energy">   -223.89705210 </i>
    <i name="e_wo_entrp">   -223.89705210 </i>
    <i name="e_0_energy">   -223.89705210 </i>
   </energy>
  </scstep>
  <scstep>
   <time name="dav">    8.14    8.19</time>
   <time name="total">    8.48    8.53</time>
   <energy>
    <i name="e_fr_energy">   -223.90135740 </i>
    <i name="e_wo_entrp">   -223.90135740 </i>
    <i name="e_0_energy">   -223.90135740 </i>
   </energy>
  </scstep>
  <scstep>
   <time name="dav">    8.95    8.99</time>
   <time name="total">    9.28    9.33</time>
   <energy>
    <i name="e_fr_energy">   -223.90066372 </i>
    <i name="e_wo_entrp">   -223.90066372 </i>
    <i name="e_0_energy">   -223.90066372 </i>
   </energy>
  </scstep>
  <scstep>
   <time name="dav">    8.69    8.74</time>
   <time name="total">    9.03    9.08</time>
   <energy>
    <i name="e_fr_energy">   -223.90062653 </i>
    <i name="e_wo_entrp">   -223.90062653 </i>
    <i name="e_0_energy">   -223.90062653 </i>
   </energy>
  </scstep>
  <scstep>
   <time name="dav">    8.60    8.64</time>
   <time name="total">    8.94    8.99</time>
   <energy>
    <i name="e_fr_energy">   -223.90062696 </i>
    <i name="e_wo_entrp">   -223.90062696 </i>
    <i name="e_0_energy">   -223.90062696 </i>
   </energy>
  </scstep>
  <scstep>
   <time name="dav">    8.24    8.28</time>
   <time name="total">    8.58    8.63</time>
   <energy>
    <i name="e_fr_energy">   -223.90062816 </i>
    <i name="e_wo_entrp">   -223.90062816 </i>
    <i name="e_0_energy">   -223.90062816 </i>
   </energy>
  </scstep>
  <scstep>
   <time name="dav">    8.36    8.40</time>
   <time name="total">    8.70    8.74</time>
   <energy>
    <i name="e_fr_energy">   -223.90062937 </i>
    <i name="e_wo_entrp">   -223.90062937 </i>
    <i name="e_0_energy">   -223.90062937 </i>
   </energy>
  </scstep>
  <scstep>
   <time name="dav">    8.51    8.56</time>
   <time name="total">    8.86    8.91</time>
   <energy>
    <i name="e_fr_energy">   -223.90062992 </i>
    <i name="e_wo_entrp">   -223.90062992 </i>
    <i name="e_0_energy">   -223.90062992 </i>
   </energy>
  </scstep>
  <scstep>
   <time name="dav">    6.34    6.38</time>
   <time name="total">    6.41    6.45</time>
   <energy>
    <i name="alphaZ">    751.52672365 </i>
    <i name="ewald"> -22871.33844468 </i>
    <i name="hartreedc">  -9078.16294241 </i>
    <i name="XCdc">   1472.51340324 </i>
    <i name="pawpsdc">  29498.30344317 </i>
    <i name="pawaedc"> -32317.66820412 </i>
    <i name="eentropy">     -0.00000000 </i>
    <i name="bandstr">  -5211.25407869 </i>
    <i name="atom">  37532.17946992 </i>
    <i name="e_fr_energy">   -223.90062992 </i>
    <i name="e_wo_entrp">   -223.90062992 </i>
    <i name="e_0_energy">   -223.90062992 </i>
   </energy>
  </scstep>
  <structure>
   <crystal>
    <varray name="basis" >
     <v>      11.20400236       0.00000000       0.00000000 </v>
     <v>       0.00000000      11.20400236       0.00000000 </v>
     <v>       0.00000000       0.00000000      11.20400236 </v>
    </varray>
    <i name="volume">   1406.43470641 </i>
    <varray name="rec_basis" >
     <v>       0.08925382       0.00000000       0.00000000 </v>
     <v>       0.00000000       0.08925382       0.00000000 </v>
     <v>       0.00000000       0.00000000       0.08925382 </v>
    </varray>
   </crystal>
   <varray name="positions" >
    <v>       0.00267761       0.00000000       0.00000000 </v>
    <v>       0.25000000       0.25000000       0.00000000 </v>
    <v>       0.25000000       0.00000000       0.25000000 </v>
    <v>       0.00000000       0.25000000       0.25000000 </v>
    <v>       0.00000000       0.00000000       0.50000000 </v>
    <v>       0.25000000       0.25000000       0.50000000 </v>
    <v>       0.25000000       0.00000000       0.75000000 </v>
    <v>       0.00000000       0.25000000       0.75000000 </v>
    <v>       0.00000000       0.50000000       0.00000000 </v>
    <v>       0.25000000       0.75000000       0.00000000 </v>
    <v>       0.25000000       0.50000000       0.25000000 </v>
    <v>       0.00000000       0.75000000       0.25000000 </v>
    <v>       0.00000000       0.50000000       0.50000000 </v>
    <v>       0.25000000       0.75000000       0.50000000 </v>
    <v>       0.25000000       0.50000000       0.75000000 </v>
    <v>       0.00000000       0.75000000       0.75000000 </v>
    <v>       0.50000000       0.00000000       0.00000000 </v>
    <v>       0.75000000       0.25000000       0.00000000 </v>
    <v>       0.75000000       0.00000000       0.25000000 </v>
    <v>       0.50000000       0.25000000       0.25000000 </v>
    <v>       0.50000000       0.00000000       0.50000000 </v>
    <v>       0.75000000       0.25000000       0.50000000 </v>
    <v>       0.75000000       0.00000000       0.75000000 </v>
    <v>       0.50000000       0.25000000       0.75000000 </v>
    <v>       0.50000000       0.50000000       0.00000000 </v>
    <v>       0.75000000       0.75000000       0.00000000 </v>
    <v>       0.75000000       0.50000000       0.25000000 </v>
    <v>       0.50000000       0.75000000       0.25000000 </v>
    <v>       0.50000000       0.50000000       0.50000000 </v>
    <v>       0.75000000       0.75000000       0.50000000 </v>
    <v>       0.75000000       0.50000000       0.75000000 </v>
    <v>       0.50000000       0.75000000       0.75000000 </v>
    <v>       0.24732239       0.25000000       0.25000000 </v>
    <v>       0.00000000       0.00000000       0.25000000 </v>
    <v>       0.00000000       0.25000000       0.00000000 </v>
    <v>       0.25000000       0.00000000       0.00000000 </v>
    <v>       0.25000000       0.25000000       0.75000000 </v>
    <v>       0.00000000       0.00000000       0.75000000 </v>
    <v>       0.00000000       0.25000000       0.50000000 </v>
    <v>       0.25000000       0.00000000       0.50000000 </v>
    <v>       0.25000000       0.75000000       0.25000000 </v>
    <v>       0.00000000       0.50000000       0.25000000 </v>
    <v>       0.00000000       0.75000000       0.00000000 </v>
    <v>       0.25000000       0.50000000       0.00000000 </v>
    <v>       0.25000000       0.75000000       0.75000000 </v>
    <v>       0.00000000       0.50000000       0.75000000 </v>
    <v>       0.00000000       0.75000000       0.50000000 </v>
    <v>       0.25000000       0.50000000       0.50000000 </v>
    <v>       0.75000000       0.25000000       0.25000000 </v>
    <v>       0.50000000       0.00000000       0.25000000 </v>
    <v>       0.50000000       0.25000000       0.00000000 </v>
    <v>       0.75000000       0.00000000       0.00000000 </v>
    <v>       0.75000000       0.25000000       0.75000000 </v>
    <v>       0.50000000       0.00000000       0.75000000 </v>
    <v>       0.50000000       0.25000000       0.50000000 </v>
    <v>       0.75000000       0.00000000       0.50000000 </v>
    <v>       0.75000000       0.75000000       0.25000000 </v>
    <v>       0.50000000       0.50000000       0.25000000 </v>
    <v>       0.50000000       0.75000000       0.00000000 </v>
    <v>       0.75000000       0.50000000       0.00000000 </v>
    <v>       0.75000000       0.75000000       0.75000000 </v>
    <v>       0.50000000       0.50000000       0.75000000 </v>
    <v>       0.50000000       0.75000000       0.50000000 </v>
    <v>       0.75000000       0.50000000       0.50000000 </v>
   </varray>
  </structure>
  <varray name="forces" >
   <v>      -0.06262534       0.00130695       0.00130695 </v>
   <v>      -0.00349996       0.00592625       0.00009177 </v>
   <v>      -0.00349996       0.00009177       0.00592625 </v>
   <v>      -0.02193888      -0.00002386      -0.00002386 </v>
   <v>       0.00016369       0.00129730      -0.00129854 </v>
   <v>      -0.00503628      -0.00007747      -0.00008951 </v>
   <v>       0.00090812       0.00000199      -0.00592534 </v>
   <v>      -0.00182858      -0.00001934       0.00002181 </v>
   <v>       0.00016369      -0.00129854       0.00129730 </v>
   <v>       0.00090812      -0.00592534       0.00000199 </v>
   <v>      -0.00503628      -0.00008951      -0.00007747 </v>
   <v>      -0.00182858       0.00002181      -0.00001934 </v>
   <v>      -0.00023861      -0.00129622      -0.00129622 </v>
   <v>      -0.00063747       0.00007745      -0.00000181 </v>
   <v>      -0.00063747      -0.00000181       0.00007745 </v>
   <v>      -0.00166715       0.00001987       0.00001987 </v>
   <v>       0.00914902      -0.00128701      -0.00128701 </v>
   <v>       0.00433889      -0.00580061       0.00000349 </v>
   <v>       0.00433889       0.00000349      -0.00580061 </v>
   <v>      -0.01504658       0.00000609       0.00000609 </v>
   <v>       0.00054413      -0.00128916       0.00129050 </v>
   <v>       0.00280724       0.00007337      -0.00000317 </v>
   <v>       0.00217301       0.00000278       0.00580074 </v>
   <v>       0.00101116       0.00000456      -0.00000519 </v>
   <v>       0.00054413       0.00129050      -0.00128916 </v>
   <v>       0.00217301       0.00580074       0.00000278 </v>
   <v>       0.00280724      -0.00000317       0.00007337 </v>
   <v>       0.00101116      -0.00000519       0.00000456 </v>
   <v>       0.00067761       0.00128987       0.00128987 </v>
   <v>       0.00064546      -0.00007325      -0.00000274 </v>
   <v>       0.00064546      -0.00000274      -0.00007325 </v>
   <v>       0.00116521      -0.00000416      -0.00000416 </v>
   <v>       0.07582610      -0.00130931      -0.00130931 </v>
   <v>       0.00107020      -0.00588736      -0.00011619 </v>
   <v>       0.00107020      -0.00011619      -0.00588736 </v>
   <v>       0.02254144       0.00002321       0.00002321 </v>
   <v>       0.00131541      -0.00130808       0.00130062 </v>
   <v>       0.00504640      -0.00057903       0.00011855 </v>
   <v>      -0.00332423       0.00000774       0.00588065 </v>
   <v>       0.00248538       0.00003217      -0.00002862 </v>
   <v>       0.00131541       0.00130062      -0.00130808 </v>
   <v>      -0.00332423       0.00588065       0.00000774 </v>
   <v>       0.00504640       0.00011855      -0.00057903 </v>
   <v>       0.00248538      -0.00002862       0.00003217 </v>
   <v>       0.00028338       0.00130789       0.00130789 </v>
   <v>       0.00064157       0.00057749      -0.00001070 </v>
   <v>       0.00064157      -0.00001070       0.00057749 </v>
   <v>       0.00231369      -0.00003130      -0.00003130 </v>
   <v>      -0.00407019       0.00127983       0.00127983 </v>
   <v>      -0.00668325       0.00573846      -0.00002025 </v>
   <v>      -0.00668325      -0.00002025       0.00573846 </v>
   <v>       0.01464196      -0.00000364      -0.00000364 </v>
   <v>      -0.00218106       0.00128401      -0.00128011 </v>
   <v>      -0.00279188       0.00056869       0.00001581 </v>
   <v>      -0.00451658       0.00000454      -0.00573222 </v>
   <v>      -0.00138585      -0.00000410       0.00000293 </v>
   <v>      -0.00218106      -0.00128011       0.00128401 </v>
   <v>      -0.00451658      -0.00573222       0.00000454 </v>
   <v>      -0.00279188       0.00001581       0.00056869 </v>
   <v>      -0.00138585       0.00000293      -0.00000410 </v>
   <v>      -0.00075313      -0.00128607      -0.00128607 </v>
   <v>      -0.00062423      -0.00056913      -0.00000463 </v>
   <v>      -0.00062423      -0.00000463      -0.00056913 </v>
   <v>      -0.00154109       0.00001076       0.00001076 </v>
  </varray>
  <varray name="stress" >
   <v>      -0.35447956       0.00003794       0.00003794 </v>
   <v>       0.00003785      -0.37744319      -0.00015195 </v>
   <v>       0.00003785      -0.00015195      -0.37744319 </v>
  </varray>
  <energy>
   <i name="e_fr_energy">   -223.90062992 </i>
   <i name="e_wo_entrp">   -223.90062992 </i>
   <i name="e_0_energy">   -223.90062992 </i>
  </energy>
  <time name="totalsc">  157.08  157.93</time>
  <eigenvalues>
   <array>
    <dimension dim="1">band</dimension>
    <dimension dim="2">kpoint</dimension>
    <dimension dim="3">spin</dimension>
    <field>eigene</field>
    <field>occ</field>
    <set>
     <set comment="spin 1">
      <set comment="kpoint 1">
       <r>  -21.3091    1.0000 </r>
       <r>  -21.3090    1.0000 </r>
       <r>  -21.3087    1.0000 </r>
       <r>  -21.3047    1.0000 </r>
       <r>  -21.3013    1.0000 </r>
       <r>  -21.3001    1.0000 </r>
       <r>  -21.3001    1.0000 </r>
       <r>  -21.2949    1.0000 </r>
       <r>  -21.2946    1.0000 </r>
       <r>  -21.2943    1.0000 </r>
       <r>  -21.2940    1.0000 </r>
       <r>  -21.2940    1.0000 </r>
       <r>  -21.2939    1.0000 </r>
       <r>  -21.2932    1.0000 </r>
       <r>  -21.2932    1.0000 </r>
       <r>  -21.2928    1.0000 </r>
       <r>  -21.2919    1.0000 </r>
       <r>  -21.2916    1.0000 </r>
       <r>  -21.2914    1.0000 </r>
       <r>  -21.2905    1.0000 </r>
       <r>  -21.2904    1.0000 </r>
       <r>  -21.2887    1.0000 </r>
       <r>  -21.2878    1.0000 </r>
       <r>  -21.2877    1.0000 </r>
       <r>  -21.2867    1.0000 </r>
       <r>  -21.2865    1.0000 </r>
       <r>  -21.2863    1.0000 </r>
       <r>  -21.2861    1.0000 </r>
       <r>  -21.2857    1.0000 </r>
       <r>  -21.2850    1.0000 </r>
       <r>  -21.2850    1.0000 </r>
       <r>  -21.2840    1.0000 </r>
       <r>  -21.2838    1.0000 </r>
       <r>  -21.2837    1.0000 </r>
       <r>  -21.2835    1.0000 </r>
       <r>  -21.2834    1.0000 </r>
       <r>  -21.2830    1.0000 </r>
       <r>  -21.2830    1.0000 </r>
       <r>  -21.2828    1.0000 </r>
       <r>  -21.2828    1.0000 </r>
       <r>  -21.2820    1.0000 </r>
       <r>  -21.2820    1.0000 </r>
       <r>  -21.2820    1.0000 </r>
       <r>  -21.2814    1.0000 </r>
       <r>  -21.2813    1.0000 </r>
       <r>  -21.2812    1.0000 </r>
       <r>  -21.2809    1.0000 </r>
       <r>  -21.2804    1.0000 </r>
       <r>  -21.2804    1.0000 </r>
       <r>  -21.2802    1.0000 </r>
       <r>  -21.2801    1.0000 </r>
       <r>  -21.2799    1.0000 </r>
       <r>  -21.2799    1.0000 </r>
       <r>  -21.2789    1.0000 </r>
       <r>  -21.2788    1.0000 </r>
       <r>  -21.2780    1.0000 </r>
       <r>  -21.2777    1.0000 </r>
       <r>  -21.2769    1.0000 </r>
       <r>  -21.2766    1.0000 </r>
       <r>  -21.2765    1.0000 </r>
       <r>  -21.2762    1.0000 </r>
       <r>  -21.2759    1.0000 </r>
       <r>  -21.2758    1.0000 </r>
       <r>  -21.2756    1.0000 </r>
       <r>  -21.2753    1.0000 </r>
       <r>  -21.2753    1.0000 </r>
       <r>  -21.2752    1.0000 </r>
       <r>  -21.2751    1.0000 </r>
       <r>  -21.2748    1.0000 </r>
       <r>  -21.2745    1.0000 </r>
       <r>  -21.2744    1.0000 </r>
       <r>  -21.2734    1.0000 </r>
       <r>  -21.2732    1.0000 </r>
       <r>  -21.2725    1.0000 </r>
       <r>  -21.2725    1.0000 </r>
       <r>  -21.2716    1.0000 </r>
       <r>  -21.2715    1.0000 </r>
       <r>  -21.2714    1.0000 </r>
       <r>  -21.2713    1.0000 </r>
       <r>  -21.2712    1.0000 </r>
       <r>  -21.2710    1.0000 </r>
       <r>  -21.2707    1.0000 </r>
       <r>  -21.2706    1.0000 </r>
       <r>  -21.2704    1.0000 </r>
       <r>  -21.2701    1.0000 </r>
       <r>  -21.2699    1.0000 </r>
       <r>  -21.2697    1.0000 </r>
       <r>  -21.2693    1.0000 </r>
       <r>  -21.2686    1.0000 </r>
       <r>  -21.2678    1.0000 </r>
       <r>  -21.2676    1.0000 </r>
       <r>  -21.2676    1.0000 </r>
       <r>  -21.2674    1.0000 </r>
       <r>  -21.2557    1.0000 </r>
       <r>  -21.2556    1.0000 </r>
       <r>  -21.2553    1.0000 </r>
       <r>  -13.3581    1.0000 </r>
       <r>  -13.1426    1.0000 </r>
       <r>  -13.1386    1.0000 </r>
       <r>  -13.1374    1.0000 </r>
       <r>  -13.1374    1.0000 </r>
       <r>  -13.1361    1.0000 </r>
       <r>  -13.1334    1.0000 </r>
       <r>  -13.0215    1.0000 </r>
       <r>  -13.0145    1.0000 </r>
       <r>  -13.0145    1.0000 </r>
       <r>  -13.0129    1.0000 </r>
       <r>  -13.0114    1.0000 </r>
       <r>  -13.0114    1.0000 </r>
       <r>  -13.0112    1.0000 </r>
       <r>  -13.0111    1.0000 </r>
       <r>  -13.0097    1.0000 </r>
       <r>  -13.0087    1.0000 </r>
       <r>  -13.0087    1.0000 </r>
       <r>  -13.0044    1.0000 </r>
       <r>  -12.9896    1.0000 </r>
       <r>  -12.9892    1.0000 </r>
       <r>  -12.9891    1.0000 </r>
       <r>  -12.9885    1.0000 </r>
       <r>  -12.9416    1.0000 </r>
       <r>  -12.9411    1.0000 </r>
       <r>  -12.9402    1.0000 </r>
       <r>  -12.9244    1.0000 </r>
       <r>  -12.9230    1.0000 </r>
       <r>  -12.9213    1.0000 </r>
       <r>  -12.9212    1.0000 </r>
       <r>  -12.9188    1.0000 </r>
       <r>  -12.9151    1.0000 </r>
       <r>   -2.7000    1.0000 </r>
       <r>   -2.7000    1.0000 </r>
       <r>   -2.7000    1.0000 </r>
       <r>   -2.6999    1.0000 </r>
       <r>   -2.4240    1.0000 </r>
       <r>   -2.4240    1.0000 </r>
       <r>   -2.4240    1.0000 </r>
       <r>   -2.2075    1.0000 </r>
       <r>   -2.2074    1.0000 </r>
       <r>   -2.2056    1.0000 </r>
       <r>   -2.2046    1.0000 </r>
       <r>   -2.2045    1.0000 </r>
       <r>   -2.2044    1.0000 </r>
       <r>   -2.2042    1.0000 </r>
       <r>   -2.2040    1.0000 </r>
       <r>   -2.2039    1.0000 </r>
       <r>   -2.2030    1.0000 </r>
       <r>   -2.2013    1.0000 </r>
       <r>   -2.2011    1.0000 </r>
       <r>   -1.9283    1.0000 </r>
       <r>   -1.9283    1.0000 </r>
       <r>   -1.9259    1.0000 </r>
       <r>   -1.9259    1.0000 </r>
       <r>   -1.9249    1.0000 </r>
       <r>   -1.9249    1.0000 </r>
       <r>   -1.9245    1.0000 </r>
       <r>   -1.9244    1.0000 </r>
       <r>   -1.9235    1.0000 </r>
       <r>   -1.9234    1.0000 </r>
       <r>   -1.9211    1.0000 </r>
       <r>   -1.9211    1.0000 </r>
       <r>   -1.7977    1.0000 </r>
       <r>   -1.7967    1.0000 </r>
       <r>   -1.7966    1.0000 </r>
       <r>   -1.7966    1.0000 </r>
       <r>   -1.7966    1.0000 </r>
       <r>   -1.7954    1.0000 </r>
       <r>   -1.5087    1.0000 </r>
       <r>   -1.5087    1.0000 </r>
       <r>   -1.5062    1.0000 </r>
       <r>   -1.5060    1.0000 </r>
       <r>   -1.5059    1.0000 </r>
       <r>   -1.5056    1.0000 </r>
       <r>   -1.5056    1.0000 </r>
       <r>   -1.5053    1.0000 </r>
       <r>   -1.5046    1.0000 </r>
       <r>   -1.5045    1.0000 </r>
       <r>   -1.5021    1.0000 </r>
       <r>   -1.5020    1.0000 </r>
       <r>   -1.4644    1.0000 </r>
       <r>   -1.4636    1.0000 </r>
       <r>   -1.4627    1.0000 </r>
       <r>   -1.4626    1.0000 </r>
       <r>   -1.4621    1.0000 </r>
       <r>   -1.4605    1.0000 </r>
       <r>   -1.2948    1.0000 </r>
       <r>   -1.2948    1.0000 </r>
       <r>   -1.2946    1.0000 </r>
       <r>   -1.2946    1.0000 </r>
       <r>   -1.2946    1.0000 </r>
       <r>   -1.2946    1.0000 </r>
       <r>   -1.0045    1.0000 </r>
       <r>   -1.0043    1.0000 </r>
       <r>   -1.0033    1.0000 </r>
       <r>   -1.0030    1.0000 </r>
       <r>   -1.0023    1.0000 </r>
       <r>   -1.0010    1.0000 </r>
       <r>   -1.0009    1.0000 </r>
       <r>   -1.0006    1.0000 </r>
       <r>   -0.9987    1.0000 </r>
       <r>   -0.9986    1.0000 </r>
       <r>   -0.9974    1.0000 </r>
       <r>   -0.9974    1.0000 </r>
       <r>   -0.9528    1.0000 </r>
       <r>   -0.9526    1.0000 </r>
       <r>   -0.9523    1.0000 </r>
       <r>   -0.9512    1.0000 </r>
       <r>   -0.9492    1.0000 </r>
       <r>   -0.9481    1.0000 </r>
       <r>   -0.9479    1.0000 </r>
       <r>   -0.9475    1.0000 </r>
       <r>   -0.9474    1.0000 </r>
       <r>   -0.9472    1.0000 </r>
       <r>   -0.9469    1.0000 </r>
       <r>   -0.9468    1.0000 </r>
       <r>   -0.9457    1.0000 </r>
       <r>   -0.9456    1.0000 </r>
       <r>   -0.9446    1.0000 </r>
       <r>   -0.9439    1.0000 </r>
       <r>   -0.9422    1.0000 </r>
       <r>   -0.9417    1.0000 </r>
       <r>   -0.9410    1.0000 </r>
       <r>   -0.9408    1.0000 </r>
       <r>   -0.6649    1.0000 </r>
       <r>   -0.6648    1.0000 </r>
       <r>   -0.6648    1.0000 </r>
       <r>    4.3403    0.0000 </r>
       <r>    6.3610    0.0000 </r>
       <r>    6.3656    0.0000 </r>
       <r>    6.3680    0.0000 </r>
       <r>    6.3682    0.0000 </r>
       <r>    6.3705    0.0000 </r>
       <r>    6.3748    0.0000 </r>
       <r>    6.4446    0.0000 </r>
       <r>    6.4446    0.0000 </r>
       <r>    6.4448    0.0000 </r>
       <r>    6.4449    0.0000 </r>
       <r>    6.8279    0.0000 </r>
       <r>    6.8280    0.0000 </r>
       <r>    6.8281    0.0000 </r>
       <r>    7.2068    0.0000 </r>
       <r>    7.2068    0.0000 </r>
       <r>    7.2069    0.0000 </r>
       <r>    7.4545    0.0000 </r>
       <r>    7.4587    0.0000 </r>
       <r>    7.4589    0.0000 </r>
       <r>    7.4619    0.0000 </r>
       <r>    7.4629    0.0000 </r>
       <r>    7.4642    0.0000 </r>
       <r>    7.4642    0.0000 </r>
       <r>    7.4655    0.0000 </r>
       <r>    7.4665    0.0000 </r>
       <r>    7.4695    0.0000 </r>
       <r>    7.4698    0.0000 </r>
       <r>    7.4733    0.0000 </r>
       <r>    8.1628    0.0000 </r>
       <r>    8.1665    0.0000 </r>
       <r>    8.1682    0.0000 </r>
       <r>    8.1684    0.0000 </r>
       <r>    8.1701    0.0000 </r>
       <r>    8.1740    0.0000 </r>
       <r>    8.2761    0.0000 </r>
       <r>    8.2786    0.0000 </r>
       <r>    8.2795    0.0000 </r>
       <r>    8.2797    0.0000 </r>
       <r>    8.2805    0.0000 </r>
       <r>    8.2831    0.0000 </r>
       <r>    8.8891    0.0000 </r>
       <r>    8.8908    0.0000 </r>
       <r>    8.8965    0.0000 </r>
       <r>    8.8975    0.0000 </r>
       <r>    8.8995    0.0000 </r>
       <r>    8.9006    0.0000 </r>
       <r>    8.9008    0.0000 </r>
       <r>    8.9021    0.0000 </r>
       <r>    8.9027    0.0000 </r>
       <r>    8.9044    0.0000 </r>
       <r>    8.9053    0.0000 </r>
       <r>    8.9074    0.0000 </r>
       <r>    8.9124    0.0000 </r>
       <r>    8.9137    0.0000 </r>
       <r>    8.9140    0.0000 </r>
       <r>    8.9153    0.0000 </r>
       <r>    8.9169    0.0000 </r>
       <r>    8.9174    0.0000 </r>
       <r>    8.9179    0.0000 </r>
       <r>    8.9199    0.0000 </r>
       <r>    8.9214    0.0000 </r>
       <r>    8.9256    0.0000 </r>
       <r>    8.9273    0.0000 </r>
      </set>
      <set comment="kpoint 2">
       <r>  -21.3084    1.0000 </r>
       <r>  -21.3084    1.0000 </r>
       <r>  -21.3079    1.0000 </r>
       <r>  -21.3025    1.0000 </r>
       <r>  -21.3004    1.0000 </r>
       <r>  -21.2981    1.0000 </r>
       <r>  -21.2981    1.0000 </r>
       <r>  -21.2968    1.0000 </r>
       <r>  -21.2964    1.0000 </r>
       <r>  -21.2963    1.0000 </r>
       <r>  -21.2960    1.0000 </r>
       <r>  -21.2936    1.0000 </r>
       <r>  -21.2934    1.0000 </r>
       <r>  -21.2929    1.0000 </r>
       <r>  -21.2927    1.0000 </r>
       <r>  -21.2926    1.0000 </r>
       <r>  -21.2925    1.0000 </r>
       <r>  -21.2920    1.0000 </r>
       <r>  -21.2917    1.0000 </r>
       <r>  -21.2910    1.0000 </r>
       <r>  -21.2909    1.0000 </r>
       <r>  -21.2895    1.0000 </r>
       <r>  -21.2888    1.0000 </r>
       <r>  -21.2887    1.0000 </r>
       <r>  -21.2883    1.0000 </r>
       <r>  -21.2878    1.0000 </r>
       <r>  -21.2878    1.0000 </r>
       <r>  -21.2876    1.0000 </r>
       <r>  -21.2870    1.0000 </r>
       <r>  -21.2869    1.0000 </r>
       <r>  -21.2867    1.0000 </r>
       <r>  -21.2866    1.0000 </r>
       <r>  -21.2861    1.0000 </r>
       <r>  -21.2854    1.0000 </r>
       <r>  -21.2845    1.0000 </r>
       <r>  -21.2843    1.0000 </r>
       <r>  -21.2840    1.0000 </r>
       <r>  -21.2833    1.0000 </r>
       <r>  -21.2831    1.0000 </r>
       <r>  -21.2829    1.0000 </r>
       <r>  -21.2815    1.0000 </r>
       <r>  -21.2815    1.0000 </r>
       <r>  -21.2805    1.0000 </r>
       <r>  -21.2804    1.0000 </r>
       <r>  -21.2800    1.0000 </r>
       <r>  -21.2793    1.0000 </r>
       <r>  -21.2786    1.0000 </r>
       <r>  -21.2784    1.0000 </r>
       <r>  -21.2782    1.0000 </r>
       <r>  -21.2779    1.0000 </r>
       <r>  -21.2777    1.0000 </r>
       <r>  -21.2776    1.0000 </r>
       <r>  -21.2774    1.0000 </r>
       <r>  -21.2771    1.0000 </r>
       <r>  -21.2770    1.0000 </r>
       <r>  -21.2769    1.0000 </r>
       <r>  -21.2768    1.0000 </r>
       <r>  -21.2766    1.0000 </r>
       <r>  -21.2766    1.0000 </r>
       <r>  -21.2762    1.0000 </r>
       <r>  -21.2759    1.0000 </r>
       <r>  -21.2758    1.0000 </r>
       <r>  -21.2755    1.0000 </r>
       <r>  -21.2754    1.0000 </r>
       <r>  -21.2753    1.0000 </r>
       <r>  -21.2752    1.0000 </r>
       <r>  -21.2749    1.0000 </r>
       <r>  -21.2749    1.0000 </r>
       <r>  -21.2745    1.0000 </r>
       <r>  -21.2745    1.0000 </r>
       <r>  -21.2744    1.0000 </r>
       <r>  -21.2733    1.0000 </r>
       <r>  -21.2733    1.0000 </r>
       <r>  -21.2733    1.0000 </r>
       <r>  -21.2731    1.0000 </r>
       <r>  -21.2727    1.0000 </r>
       <r>  -21.2724    1.0000 </r>
       <r>  -21.2724    1.0000 </r>
       <r>  -21.2723    1.0000 </r>
       <r>  -21.2720    1.0000 </r>
       <r>  -21.2718    1.0000 </r>
       <r>  -21.2712    1.0000 </r>
       <r>  -21.2710    1.0000 </r>
       <r>  -21.2704    1.0000 </r>
       <r>  -21.2703    1.0000 </r>
       <r>  -21.2700    1.0000 </r>
       <r>  -21.2699    1.0000 </r>
       <r>  -21.2697    1.0000 </r>
       <r>  -21.2695    1.0000 </r>
       <r>  -21.2679    1.0000 </r>
       <r>  -21.2679    1.0000 </r>
       <r>  -21.2678    1.0000 </r>
       <r>  -21.2674    1.0000 </r>
       <r>  -21.2558    1.0000 </r>
       <r>  -21.2556    1.0000 </r>
       <r>  -21.2554    1.0000 </r>
       <r>  -13.2944    1.0000 </r>
       <r>  -13.2882    1.0000 </r>
       <r>  -13.1050    1.0000 </r>
       <r>  -13.0995    1.0000 </r>
       <r>  -13.0992    1.0000 </r>
       <r>  -13.0987    1.0000 </r>
       <r>  -13.0951    1.0000 </r>
       <r>  -13.0946    1.0000 </r>
       <r>  -13.0943    1.0000 </r>
       <r>  -13.0906    1.0000 </r>
       <r>  -13.0093    1.0000 </r>
       <r>  -13.0051    1.0000 </r>
       <r>  -13.0051    1.0000 </r>
       <r>  -13.0034    1.0000 </r>
       <r>  -12.9986    1.0000 </r>
       <r>  -12.9979    1.0000 </r>
       <r>  -12.9962    1.0000 </r>
       <r>  -12.9961    1.0000 </r>
       <r>  -12.9953    1.0000 </r>
       <r>  -12.9903    1.0000 </r>
       <r>  -12.9506    1.0000 </r>
       <r>  -12.9467    1.0000 </r>
       <r>  -12.9467    1.0000 </r>
       <r>  -12.9459    1.0000 </r>
       <r>  -12.9414    1.0000 </r>
       <r>  -12.9414    1.0000 </r>
       <r>  -12.9404    1.0000 </r>
       <r>  -12.9377    1.0000 </r>
       <r>  -12.9352    1.0000 </r>
       <r>  -12.9346    1.0000 </r>
       <r>  -12.9263    1.0000 </r>
       <r>  -12.9236    1.0000 </r>
       <r>   -2.5081    1.0000 </r>
       <r>   -2.5081    1.0000 </r>
       <r>   -2.5081    1.0000 </r>
       <r>   -2.5068    1.0000 </r>
       <r>   -2.5018    1.0000 </r>
       <r>   -2.5007    1.0000 </r>
       <r>   -2.5007    1.0000 </r>
       <r>   -2.5006    1.0000 </r>
       <r>   -2.2905    1.0000 </r>
       <r>   -2.2905    1.0000 </r>
       <r>   -2.2849    1.0000 </r>
       <r>   -2.2848    1.0000 </r>
       <r>   -2.2775    1.0000 </r>
       <r>   -2.2709    1.0000 </r>
       <r>   -2.1417    1.0000 </r>
       <r>   -2.1391    1.0000 </r>
       <r>   -2.1371    1.0000 </r>
       <r>   -2.1370    1.0000 </r>
       <r>   -2.1358    1.0000 </r>
       <r>   -2.1358    1.0000 </r>
       <r>   -2.1336    1.0000 </r>
       <r>   -2.1313    1.0000 </r>
       <r>   -1.9881    1.0000 </r>
       <r>   -1.9880    1.0000 </r>
       <r>   -1.9867    1.0000 </r>
       <r>   -1.9866    1.0000 </r>
       <r>   -1.9841    1.0000 </r>
       <r>   -1.9841    1.0000 </r>
       <r>   -1.9829    1.0000 </r>
       <r>   -1.9828    1.0000 </r>
       <r>   -1.8128    1.0000 </r>
       <r>   -1.8128    1.0000 </r>
       <r>   -1.8107    1.0000 </r>
       <r>   -1.8103    1.0000 </r>
       <r>   -1.8072    1.0000 </r>
       <r>   -1.8068    1.0000 </r>
       <r>   -1.8048    1.0000 </r>
       <r>   -1.8047    1.0000 </r>
       <r>   -1.5016    1.0000 </r>
       <r>   -1.5016    1.0000 </r>
       <r>   -1.4938    1.0000 </r>
       <r>   -1.4938    1.0000 </r>
       <r>   -1.3860    1.0000 </r>
       <r>   -1.3844    1.0000 </r>
       <r>   -1.3763    1.0000 </r>
       <r>   -1.3752    1.0000 </r>
       <r>   -1.2155    1.0000 </r>
       <r>   -1.2155    1.0000 </r>
       <r>   -1.2096    1.0000 </r>
       <r>   -1.2096    1.0000 </r>
       <r>   -1.1960    1.0000 </r>
       <r>   -1.1932    1.0000 </r>
       <r>   -1.1932    1.0000 </r>
       <r>   -1.1916    1.0000 </r>
       <r>   -1.1909    1.0000 </r>
       <r>   -1.1907    1.0000 </r>
       <r>   -1.1890    1.0000 </r>
       <r>   -1.1877    1.0000 </r>
       <r>   -1.1798    1.0000 </r>
       <r>   -1.1783    1.0000 </r>
       <r>   -1.1782    1.0000 </r>
       <r>   -1.1762    1.0000 </r>
       <r>   -1.1709    1.0000 </r>
       <r>   -1.1704    1.0000 </r>
       <r>   -1.1704    1.0000 </r>
       <r>   -1.1677    1.0000 </r>
       <r>   -1.1636    1.0000 </r>
       <r>   -1.1635    1.0000 </r>
       <r>   -1.1631    1.0000 </r>
       <r>   -1.1630    1.0000 </r>
       <r>   -1.1555    1.0000 </r>
       <r>   -1.1553    1.0000 </r>
       <r>   -1.1549    1.0000 </r>
       <r>   -1.1549    1.0000 </r>
       <r>   -1.0866    1.0000 </r>
       <r>   -1.0797    1.0000 </r>
       <r>   -0.9518    1.0000 </r>
       <r>   -0.9518    1.0000 </r>
       <r>   -0.9516    1.0000 </r>
       <r>   -0.9511    1.0000 </r>
       <r>   -0.9426    1.0000 </r>
       <r>   -0.9423    1.0000 </r>
       <r>   -0.9422    1.0000 </r>
       <r>   -0.9421    1.0000 </r>
       <r>   -0.9384    1.0000 </r>
       <r>   -0.9341    1.0000 </r>
       <r>   -0.9340    1.0000 </r>
       <r>   -0.9331    1.0000 </r>
       <r>   -0.9313    1.0000 </r>
       <r>   -0.9306    1.0000 </r>
       <r>   -0.9304    1.0000 </r>
       <r>   -0.9257    1.0000 </r>
       <r>   -0.7720    1.0000 </r>
       <r>   -0.7720    1.0000 </r>
       <r>   -0.7645    1.0000 </r>
       <r>   -0.7645    1.0000 </r>
       <r>    5.0183    0.0000 </r>
       <r>    5.0263    0.0000 </r>
       <r>    6.7095    0.0000 </r>
       <r>    6.7134    0.0000 </r>
       <r>    6.7144    0.0000 </r>
       <r>    6.7162    0.0000 </r>
       <r>    6.7206    0.0000 </r>
       <r>    6.7220    0.0000 </r>
       <r>    6.7228    0.0000 </r>
       <r>    6.7263    0.0000 </r>
       <r>    6.8384    0.0000 </r>
       <r>    6.8384    0.0000 </r>
       <r>    6.8389    0.0000 </r>
       <r>    6.8403    0.0000 </r>
       <r>    6.8462    0.0000 </r>
       <r>    6.8473    0.0000 </r>
       <r>    6.8483    0.0000 </r>
       <r>    6.8483    0.0000 </r>
       <r>    6.9680    0.0000 </r>
       <r>    6.9745    0.0000 </r>
       <r>    7.3562    0.0000 </r>
       <r>    7.3591    0.0000 </r>
       <r>    7.3659    0.0000 </r>
       <r>    7.3689    0.0000 </r>
       <r>    7.4771    0.0000 </r>
       <r>    7.4834    0.0000 </r>
       <r>    7.7099    0.0000 </r>
       <r>    7.7099    0.0000 </r>
       <r>    7.7193    0.0000 </r>
       <r>    7.7193    0.0000 </r>
       <r>    8.2555    0.0000 </r>
       <r>    8.2624    0.0000 </r>
       <r>    8.2635    0.0000 </r>
       <r>    8.2637    0.0000 </r>
       <r>    8.2680    0.0000 </r>
       <r>    8.2684    0.0000 </r>
       <r>    8.2694    0.0000 </r>
       <r>    8.2753    0.0000 </r>
       <r>    8.5272    0.0000 </r>
       <r>    8.5276    0.0000 </r>
       <r>    8.5313    0.0000 </r>
       <r>    8.5348    0.0000 </r>
       <r>    8.5349    0.0000 </r>
       <r>    8.5358    0.0000 </r>
       <r>    8.5381    0.0000 </r>
       <r>    8.5383    0.0000 </r>
       <r>    8.5404    0.0000 </r>
       <r>    8.5405    0.0000 </r>
       <r>    8.5405    0.0000 </r>
       <r>    8.5423    0.0000 </r>
       <r>    8.5430    0.0000 </r>
       <r>    8.5463    0.0000 </r>
       <r>    8.5478    0.0000 </r>
       <r>    8.5478    0.0000 </r>
       <r>    8.9446    0.0000 </r>
       <r>    8.9467    0.0000 </r>
       <r>    8.9479    0.0000 </r>
       <r>    8.9485    0.0000 </r>
       <r>    8.9534    0.0000 </r>
       <r>    8.9539    0.0000 </r>
       <r>    8.9554    0.0000 </r>
       <r>    8.9575    0.0000 </r>
       <r>    9.4903    0.0000 </r>
       <r>    9.5025    0.0000 </r>
      </set>
      <set comment="kpoint 3">
       <r>  -21.3082    1.0000 </r>
       <r>  -21.3079    1.0000 </r>
       <r>  -21.3077    1.0000 </r>
       <r>  -21.3010    1.0000 </r>
       <r>  -21.3002    1.0000 </r>
       <r>  -21.2999    1.0000 </r>
       <r>  -21.2999    1.0000 </r>
       <r>  -21.2998    1.0000 </r>
       <r>  -21.2971    1.0000 </r>
       <r>  -21.2968    1.0000 </r>
       <r>  -21.2949    1.0000 </r>
       <r>  -21.2938    1.0000 </r>
       <r>  -21.2930    1.0000 </r>
       <r>  -21.2925    1.0000 </r>
       <r>  -21.2923    1.0000 </r>
       <r>  -21.2921    1.0000 </r>
       <r>  -21.2911    1.0000 </r>
       <r>  -21.2908    1.0000 </r>
       <r>  -21.2907    1.0000 </r>
       <r>  -21.2905    1.0000 </r>
       <r>  -21.2904    1.0000 </r>
       <r>  -21.2898    1.0000 </r>
       <r>  -21.2897    1.0000 </r>
       <r>  -21.2887    1.0000 </r>
       <r>  -21.2886    1.0000 </r>
       <r>  -21.2884    1.0000 </r>
       <r>  -21.2881    1.0000 </r>
       <r>  -21.2877    1.0000 </r>
       <r>  -21.2870    1.0000 </r>
       <r>  -21.2864    1.0000 </r>
       <r>  -21.2862    1.0000 </r>
       <r>  -21.2850    1.0000 </r>
       <r>  -21.2843    1.0000 </r>
       <r>  -21.2842    1.0000 </r>
       <r>  -21.2841    1.0000 </r>
       <r>  -21.2840    1.0000 </r>
       <r>  -21.2838    1.0000 </r>
       <r>  -21.2837    1.0000 </r>
       <r>  -21.2827    1.0000 </r>
       <r>  -21.2825    1.0000 </r>
       <r>  -21.2824    1.0000 </r>
       <r>  -21.2812    1.0000 </r>
       <r>  -21.2811    1.0000 </r>
       <r>  -21.2810    1.0000 </r>
       <r>  -21.2806    1.0000 </r>
       <r>  -21.2804    1.0000 </r>
       <r>  -21.2801    1.0000 </r>
       <r>  -21.2795    1.0000 </r>
       <r>  -21.2792    1.0000 </r>
       <r>  -21.2791    1.0000 </r>
       <r>  -21.2782    1.0000 </r>
       <r>  -21.2779    1.0000 </r>
       <r>  -21.2778    1.0000 </r>
       <r>  -21.2777    1.0000 </r>
       <r>  -21.2772    1.0000 </r>
       <r>  -21.2770    1.0000 </r>
       <r>  -21.2770    1.0000 </r>
       <r>  -21.2767    1.0000 </r>
       <r>  -21.2766    1.0000 </r>
       <r>  -21.2765    1.0000 </r>
       <r>  -21.2764    1.0000 </r>
       <r>  -21.2762    1.0000 </r>
       <r>  -21.2758    1.0000 </r>
       <r>  -21.2756    1.0000 </r>
       <r>  -21.2755    1.0000 </r>
       <r>  -21.2752    1.0000 </r>
       <r>  -21.2748    1.0000 </r>
       <r>  -21.2745    1.0000 </r>
       <r>  -21.2745    1.0000 </r>
       <r>  -21.2736    1.0000 </r>
       <r>  -21.2735    1.0000 </r>
       <r>  -21.2731    1.0000 </r>
       <r>  -21.2729    1.0000 </r>
       <r>  -21.2727    1.0000 </r>
       <r>  -21.2724    1.0000 </r>
       <r>  -21.2723    1.0000 </r>
       <r>  -21.2721    1.0000 </r>
       <r>  -21.2717    1.0000 </r>
       <r>  -21.2716    1.0000 </r>
       <r>  -21.2713    1.0000 </r>
       <r>  -21.2710    1.0000 </r>
       <r>  -21.2708    1.0000 </r>
       <r>  -21.2707    1.0000 </r>
       <r>  -21.2706    1.0000 </r>
       <r>  -21.2702    1.0000 </r>
       <r>  -21.2700    1.0000 </r>
       <r>  -21.2698    1.0000 </r>
       <r>  -21.2694    1.0000 </r>
       <r>  -21.2689    1.0000 </r>
       <r>  -21.2688    1.0000 </r>
       <r>  -21.2686    1.0000 </r>
       <r>  -21.2683    1.0000 </r>
       <r>  -21.2681    1.0000 </r>
       <r>  -21.2558    1.0000 </r>
       <r>  -21.2557    1.0000 </r>
       <r>  -21.2554    1.0000 </r>
       <r>  -13.2916    1.0000 </r>
       <r>  -13.2912    1.0000 </r>
       <r>  -13.1042    1.0000 </r>
       <r>  -13.0984    1.0000 </r>
       <r>  -13.0978    1.0000 </r>
       <r>  -13.0970    1.0000 </r>
       <r>  -13.0969    1.0000 </r>
       <r>  -13.0961    1.0000 </r>
       <r>  -13.0954    1.0000 </r>
       <r>  -13.0913    1.0000 </r>
       <r>  -13.0063    1.0000 </r>
       <r>  -13.0020    1.0000 </r>
       <r>  -13.0011    1.0000 </r>
       <r>  -13.0007    1.0000 </r>
       <r>  -13.0006    1.0000 </r>
       <r>  -13.0006    1.0000 </r>
       <r>  -13.0005    1.0000 </r>
       <r>  -12.9998    1.0000 </r>
       <r>  -12.9952    1.0000 </r>
       <r>  -12.9920    1.0000 </r>
       <r>  -12.9498    1.0000 </r>
       <r>  -12.9456    1.0000 </r>
       <r>  -12.9452    1.0000 </r>
       <r>  -12.9438    1.0000 </r>
       <r>  -12.9435    1.0000 </r>
       <r>  -12.9426    1.0000 </r>
       <r>  -12.9423    1.0000 </r>
       <r>  -12.9387    1.0000 </r>
       <r>  -12.9311    1.0000 </r>
       <r>  -12.9308    1.0000 </r>
       <r>  -12.9297    1.0000 </r>
       <r>  -12.9257    1.0000 </r>
       <r>   -2.5051    1.0000 </r>
       <r>   -2.5050    1.0000 </r>
       <r>   -2.5049    1.0000 </r>
       <r>   -2.5045    1.0000 </r>
       <r>   -2.5044    1.0000 </r>
       <r>   -2.5040    1.0000 </r>
       <r>   -2.5038    1.0000 </r>
       <r>   -2.5037    1.0000 </r>
       <r>   -2.2878    1.0000 </r>
       <r>   -2.2877    1.0000 </r>
       <r>   -2.2876    1.0000 </r>
       <r>   -2.2876    1.0000 </r>
       <r>   -2.2743    1.0000 </r>
       <r>   -2.2741    1.0000 </r>
       <r>   -2.1409    1.0000 </r>
       <r>   -2.1374    1.0000 </r>
       <r>   -2.1365    1.0000 </r>
       <r>   -2.1364    1.0000 </r>
       <r>   -2.1363    1.0000 </r>
       <r>   -2.1363    1.0000 </r>
       <r>   -2.1354    1.0000 </r>
       <r>   -2.1318    1.0000 </r>
       <r>   -1.9868    1.0000 </r>
       <r>   -1.9867    1.0000 </r>
       <r>   -1.9860    1.0000 </r>
       <r>   -1.9859    1.0000 </r>
       <r>   -1.9852    1.0000 </r>
       <r>   -1.9850    1.0000 </r>
       <r>   -1.9841    1.0000 </r>
       <r>   -1.9841    1.0000 </r>
       <r>   -1.8125    1.0000 </r>
       <r>   -1.8096    1.0000 </r>
       <r>   -1.8089    1.0000 </r>
       <r>   -1.8088    1.0000 </r>
       <r>   -1.8087    1.0000 </r>
       <r>   -1.8086    1.0000 </r>
       <r>   -1.8079    1.0000 </r>
       <r>   -1.8051    1.0000 </r>
       <r>   -1.4979    1.0000 </r>
       <r>   -1.4978    1.0000 </r>
       <r>   -1.4978    1.0000 </r>
       <r>   -1.4977    1.0000 </r>
       <r>   -1.3808    1.0000 </r>
       <r>   -1.3804    1.0000 </r>
       <r>   -1.3804    1.0000 </r>
       <r>   -1.3803    1.0000 </r>
       <r>   -1.2142    1.0000 </r>
       <r>   -1.2127    1.0000 </r>
       <r>   -1.2126    1.0000 </r>
       <r>   -1.2123    1.0000 </r>
       <r>   -1.1934    1.0000 </r>
       <r>   -1.1927    1.0000 </r>
       <r>   -1.1921    1.0000 </r>
       <r>   -1.1914    1.0000 </r>
       <r>   -1.1910    1.0000 </r>
       <r>   -1.1906    1.0000 </r>
       <r>   -1.1901    1.0000 </r>
       <r>   -1.1895    1.0000 </r>
       <r>   -1.1770    1.0000 </r>
       <r>   -1.1751    1.0000 </r>
       <r>   -1.1744    1.0000 </r>
       <r>   -1.1742    1.0000 </r>
       <r>   -1.1741    1.0000 </r>
       <r>   -1.1737    1.0000 </r>
       <r>   -1.1728    1.0000 </r>
       <r>   -1.1716    1.0000 </r>
       <r>   -1.1622    1.0000 </r>
       <r>   -1.1602    1.0000 </r>
       <r>   -1.1597    1.0000 </r>
       <r>   -1.1594    1.0000 </r>
       <r>   -1.1593    1.0000 </r>
       <r>   -1.1587    1.0000 </r>
       <r>   -1.1578    1.0000 </r>
       <r>   -1.1560    1.0000 </r>
       <r>   -1.0833    1.0000 </r>
       <r>   -1.0831    1.0000 </r>
       <r>   -0.9481    1.0000 </r>
       <r>   -0.9472    1.0000 </r>
       <r>   -0.9469    1.0000 </r>
       <r>   -0.9469    1.0000 </r>
       <r>   -0.9468    1.0000 </r>
       <r>   -0.9467    1.0000 </r>
       <r>   -0.9464    1.0000 </r>
       <r>   -0.9459    1.0000 </r>
       <r>   -0.9368    1.0000 </r>
       <r>   -0.9345    1.0000 </r>
       <r>   -0.9334    1.0000 </r>
       <r>   -0.9324    1.0000 </r>
       <r>   -0.9323    1.0000 </r>
       <r>   -0.9307    1.0000 </r>
       <r>   -0.9298    1.0000 </r>
       <r>   -0.9275    1.0000 </r>
       <r>   -0.7683    1.0000 </r>
       <r>   -0.7683    1.0000 </r>
       <r>   -0.7681    1.0000 </r>
       <r>   -0.7679    1.0000 </r>
       <r>    5.0223    0.0000 </r>
       <r>    5.0224    0.0000 </r>
       <r>    6.7091    0.0000 </r>
       <r>    6.7150    0.0000 </r>
       <r>    6.7165    0.0000 </r>
       <r>    6.7178    0.0000 </r>
       <r>    6.7186    0.0000 </r>
       <r>    6.7200    0.0000 </r>
       <r>    6.7213    0.0000 </r>
       <r>    6.7263    0.0000 </r>
       <r>    6.8397    0.0000 </r>
       <r>    6.8400    0.0000 </r>
       <r>    6.8416    0.0000 </r>
       <r>    6.8430    0.0000 </r>
       <r>    6.8435    0.0000 </r>
       <r>    6.8449    0.0000 </r>
       <r>    6.8469    0.0000 </r>
       <r>    6.8470    0.0000 </r>
       <r>    6.9711    0.0000 </r>
       <r>    6.9712    0.0000 </r>
       <r>    7.3625    0.0000 </r>
       <r>    7.3625    0.0000 </r>
       <r>    7.3626    0.0000 </r>
       <r>    7.3627    0.0000 </r>
       <r>    7.4802    0.0000 </r>
       <r>    7.4803    0.0000 </r>
       <r>    7.7145    0.0000 </r>
       <r>    7.7146    0.0000 </r>
       <r>    7.7146    0.0000 </r>
       <r>    7.7146    0.0000 </r>
       <r>    8.2596    0.0000 </r>
       <r>    8.2633    0.0000 </r>
       <r>    8.2647    0.0000 </r>
       <r>    8.2657    0.0000 </r>
       <r>    8.2661    0.0000 </r>
       <r>    8.2670    0.0000 </r>
       <r>    8.2685    0.0000 </r>
       <r>    8.2722    0.0000 </r>
       <r>    8.5283    0.0000 </r>
       <r>    8.5315    0.0000 </r>
       <r>    8.5337    0.0000 </r>
       <r>    8.5346    0.0000 </r>
       <r>    8.5371    0.0000 </r>
       <r>    8.5372    0.0000 </r>
       <r>    8.5380    0.0000 </r>
       <r>    8.5384    0.0000 </r>
       <r>    8.5384    0.0000 </r>
       <r>    8.5390    0.0000 </r>
       <r>    8.5395    0.0000 </r>
       <r>    8.5403    0.0000 </r>
       <r>    8.5427    0.0000 </r>
       <r>    8.5431    0.0000 </r>
       <r>    8.5457    0.0000 </r>
       <r>    8.5484    0.0000 </r>
       <r>    8.9422    0.0000 </r>
       <r>    8.9454    0.0000 </r>
       <r>    8.9503    0.0000 </r>
       <r>    8.9506    0.0000 </r>
       <r>    8.9512    0.0000 </r>
       <r>    8.9515    0.0000 </r>
       <r>    8.9565    0.0000 </r>
       <r>    8.9597    0.0000 </r>
       <r>    9.4967    0.0000 </r>
       <r>    9.5228    0.0000 </r>
      </set>
      <set comment="kpoint 4">
       <r>  -21.3079    1.0000 </r>
       <r>  -21.3077    1.0000 </r>
       <r>  -21.3074    1.0000 </r>
       <r>  -21.2998    1.0000 </r>
       <r>  -21.2987    1.0000 </r>
       <r>  -21.2981    1.0000 </r>
       <r>  -21.2979    1.0000 </r>
       <r>  -21.2978    1.0000 </r>
       <r>  -21.2965    1.0000 </r>
       <r>  -21.2957    1.0000 </r>
       <r>  -21.2949    1.0000 </r>
       <r>  -21.2941    1.0000 </r>
       <r>  -21.2937    1.0000 </r>
       <r>  -21.2936    1.0000 </r>
       <r>  -21.2934    1.0000 </r>
       <r>  -21.2933    1.0000 </r>
       <r>  -21.2930    1.0000 </r>
       <r>  -21.2925    1.0000 </r>
       <r>  -21.2924    1.0000 </r>
       <r>  -21.2919    1.0000 </r>
       <r>  -21.2916    1.0000 </r>
       <r>  -21.2914    1.0000 </r>
       <r>  -21.2912    1.0000 </r>
       <r>  -21.2906    1.0000 </r>
       <r>  -21.2904    1.0000 </r>
       <r>  -21.2898    1.0000 </r>
       <r>  -21.2882    1.0000 </r>
       <r>  -21.2880    1.0000 </r>
       <r>  -21.2873    1.0000 </r>
       <r>  -21.2869    1.0000 </r>
       <r>  -21.2865    1.0000 </r>
       <r>  -21.2858    1.0000 </r>
       <r>  -21.2844    1.0000 </r>
       <r>  -21.2841    1.0000 </r>
       <r>  -21.2836    1.0000 </r>
       <r>  -21.2822    1.0000 </r>
       <r>  -21.2818    1.0000 </r>
       <r>  -21.2816    1.0000 </r>
       <r>  -21.2811    1.0000 </r>
       <r>  -21.2807    1.0000 </r>
       <r>  -21.2805    1.0000 </r>
       <r>  -21.2803    1.0000 </r>
       <r>  -21.2801    1.0000 </r>
       <r>  -21.2800    1.0000 </r>
       <r>  -21.2798    1.0000 </r>
       <r>  -21.2797    1.0000 </r>
       <r>  -21.2795    1.0000 </r>
       <r>  -21.2792    1.0000 </r>
       <r>  -21.2790    1.0000 </r>
       <r>  -21.2789    1.0000 </r>
       <r>  -21.2786    1.0000 </r>
       <r>  -21.2783    1.0000 </r>
       <r>  -21.2781    1.0000 </r>
       <r>  -21.2779    1.0000 </r>
       <r>  -21.2778    1.0000 </r>
       <r>  -21.2773    1.0000 </r>
       <r>  -21.2771    1.0000 </r>
       <r>  -21.2770    1.0000 </r>
       <r>  -21.2770    1.0000 </r>
       <r>  -21.2769    1.0000 </r>
       <r>  -21.2764    1.0000 </r>
       <r>  -21.2761    1.0000 </r>
       <r>  -21.2759    1.0000 </r>
       <r>  -21.2758    1.0000 </r>
       <r>  -21.2755    1.0000 </r>
       <r>  -21.2754    1.0000 </r>
       <r>  -21.2753    1.0000 </r>
       <r>  -21.2752    1.0000 </r>
       <r>  -21.2743    1.0000 </r>
       <r>  -21.2741    1.0000 </r>
       <r>  -21.2735    1.0000 </r>
       <r>  -21.2734    1.0000 </r>
       <r>  -21.2732    1.0000 </r>
       <r>  -21.2728    1.0000 </r>
       <r>  -21.2726    1.0000 </r>
       <r>  -21.2725    1.0000 </r>
[...]
      </set>
     </set>
    </set>
   </array>
  </eigenvalues>
  <separator name="orbital magnetization" >
   <v name="MAGDIPOLOUT">      0.00000000      0.00000000      0.00000000</v>
  </separator>
  <dos>
   <i name="efermi">     -0.55154663 </i>
   <total>
    <array>
     <dimension dim="1">gridpoints</dimension>
     <dimension dim="2">spin</dimension>
     <field>energy</field>
     <field>total</field>
     <field>integrated</field>
     <set>
      <set comment="spin 1">
       <r>   -22.8507     0.0000     0.0000 </r>
       <r>   -22.7377     0.0000     0.0000 </r>
       <r>   -22.6246     0.0000     0.0000 </r>
       <r>   -22.5116     0.0000     0.0000 </r>
       <r>   -22.3985     0.0000     0.0000 </r>
       <r>   -22.2855     0.0000     0.0000 </r>
       <r>   -22.1724     0.0000     0.0000 </r>
       <r>   -22.0594     0.0000     0.0000 </r>
       <r>   -21.9463     0.0000     0.0000 </r>
       <r>   -21.8333     0.0000     0.0000 </r>
       <r>   -21.7202     0.0000     0.0000 </r>
       <r>   -21.6071     0.0000     0.0000 </r>
       <r>   -21.4941     0.0000     0.0000 </r>
       <r>   -21.3810     0.0000     0.0000 </r>
       <r>   -21.2680  1305.4798   147.5848 </r>
       <r>   -21.1549   392.8804   192.0000 </r>
       <r>   -21.0419     0.0000   192.0000 </r>
       <r>   -20.9288     0.0000   192.0000 </r>
       <r>   -20.8158     0.0000   192.0000 </r>
       <r>   -20.7027     0.0000   192.0000 </r>
       <r>   -20.5897     0.0000   192.0000 </r>
       <r>   -20.4766     0.0000   192.0000 </r>
       <r>   -20.3636     0.0000   192.0000 </r>
       <r>   -20.2505     0.0000   192.0000 </r>
       <r>   -20.1375     0.0000   192.0000 </r>
       <r>   -20.0244     0.0000   192.0000 </r>
       <r>   -19.9114     0.0000   192.0000 </r>
       <r>   -19.7983     0.0000   192.0000 </r>
       <r>   -19.6853     0.0000   192.0000 </r>
       <r>   -19.5722     0.0000   192.0000 </r>
       <r>   -19.4592     0.0000   192.0000 </r>
       <r>   -19.3461     0.0000   192.0000 </r>
       <r>   -19.2331     0.0000   192.0000 </r>
       <r>   -19.1200     0.0000   192.0000 </r>
       <r>   -19.0070     0.0000   192.0000 </r>
       <r>   -18.8939     0.0000   192.0000 </r>
       <r>   -18.7809     0.0000   192.0000 </r>
       <r>   -18.6678     0.0000   192.0000 </r>
       <r>   -18.5548     0.0000   192.0000 </r>
       <r>   -18.4417     0.0000   192.0000 </r>
       <r>   -18.3287     0.0000   192.0000 </r>
       <r>   -18.2156     0.0000   192.0000 </r>
       <r>   -18.1026     0.0000   192.0000 </r>
       <r>   -17.9895     0.0000   192.0000 </r>
       <r>   -17.8765     0.0000   192.0000 </r>
       <r>   -17.7634     0.0000   192.0000 </r>
       <r>   -17.6504     0.0000   192.0000 </r>
       <r>   -17.5373     0.0000   192.0000 </r>
       <r>   -17.4243     0.0000   192.0000 </r>
       <r>   -17.3112     0.0000   192.0000 </r>
       <r>   -17.1982     0.0000   192.0000 </r>
       <r>   -17.0851     0.0000   192.0000 </r>
       <r>   -16.9721     0.0000   192.0000 </r>
       <r>   -16.8590     0.0000   192.0000 </r>
       <r>   -16.7460     0.0000   192.0000 </r>
       <r>   -16.6329     0.0000   192.0000 </r>
       <r>   -16.5199     0.0000   192.0000 </r>
       <r>   -16.4068     0.0000   192.0000 </r>
       <r>   -16.2938     0.0000   192.0000 </r>
       <r>   -16.1807     0.0000   192.0000 </r>
       <r>   -16.0677     0.0000   192.0000 </r>
       <r>   -15.9546     0.0000   192.0000 </r>
       <r>   -15.8416     0.0000   192.0000 </r>
       <r>   -15.7285     0.0000   192.0000 </r>
       <r>   -15.6155     0.0000   192.0000 </r>
       <r>   -15.5024     0.0000   192.0000 </r>
       <r>   -15.3894     0.0000   192.0000 </r>
       <r>   -15.2763     0.0000   192.0000 </r>
       <r>   -15.1633     0.0000   192.0000 </r>
       <r>   -15.0502     0.0000   192.0000 </r>
       <r>   -14.9372     0.0000   192.0000 </r>
       <r>   -14.8241     0.0000   192.0000 </r>
       <r>   -14.7111     0.0000   192.0000 </r>
       <r>   -14.5980     0.0000   192.0000 </r>
       <r>   -14.4850     0.0000   192.0000 </r>
       <r>   -14.3719     0.0000   192.0000 </r>
       <r>   -14.2589     0.0000   192.0000 </r>
       <r>   -14.1458     0.0000   192.0000 </r>
       <r>   -14.0328     0.0000   192.0000 </r>
       <r>   -13.9197     0.0000   192.0000 </r>
       <r>   -13.8067     0.0000   192.0000 </r>
       <r>   -13.6936     0.0000   192.0000 </r>
       <r>   -13.5806     0.0000   192.0000 </r>
       <r>   -13.4675     0.0000   192.0000 </r>
       <r>   -13.3545     1.3282   192.1502 </r>
       <r>   -13.2414    20.8541   194.5077 </r>
       <r>   -13.1284    48.1910   199.9559 </r>
       <r>   -13.0153   129.7099   214.6199 </r>
       <r>   -12.9023   362.9202   255.6492 </r>
       <r>   -12.7892     3.0959   256.0000 </r>
       <r>   -12.6762     0.0000   256.0000 </r>
       <r>   -12.5631     0.0000   256.0000 </r>
       <r>   -12.4501     0.0000   256.0000 </r>
       <r>   -12.3370     0.0000   256.0000 </r>
       <r>   -12.2240     0.0000   256.0000 </r>
       <r>   -12.1109     0.0000   256.0000 </r>
       <r>   -11.9979     0.0000   256.0000 </r>
       <r>   -11.8848     0.0000   256.0000 </r>
       <r>   -11.7718     0.0000   256.0000 </r>
       <r>   -11.6587     0.0000   256.0000 </r>
       <r>   -11.5457     0.0000   256.0000 </r>
       <r>   -11.4326     0.0000   256.0000 </r>
       <r>   -11.3196     0.0000   256.0000 </r>
       <r>   -11.2065     0.0000   256.0000 </r>
       <r>   -11.0935     0.0000   256.0000 </r>
       <r>   -10.9804     0.0000   256.0000 </r>
       <r>   -10.8674     0.0000   256.0000 </r>
       <r>   -10.7543     0.0000   256.0000 </r>
       <r>   -10.6413     0.0000   256.0000 </r>
       <r>   -10.5282     0.0000   256.0000 </r>
       <r>   -10.4152     0.0000   256.0000 </r>
       <r>   -10.3021     0.0000   256.0000 </r>
       <r>   -10.1891     0.0000   256.0000 </r>
       <r>   -10.0760     0.0000   256.0000 </r>
       <r>    -9.9630     0.0000   256.0000 </r>
       <r>    -9.8499     0.0000   256.0000 </r>
       <r>    -9.7369     0.0000   256.0000 </r>
       <r>    -9.6238     0.0000   256.0000 </r>
       <r>    -9.5108     0.0000   256.0000 </r>
       <r>    -9.3977     0.0000   256.0000 </r>
       <r>    -9.2847     0.0000   256.0000 </r>
       <r>    -9.1716     0.0000   256.0000 </r>
       <r>    -9.0586     0.0000   256.0000 </r>
       <r>    -8.9455     0.0000   256.0000 </r>
       <r>    -8.8325     0.0000   256.0000 </r>
       <r>    -8.7194     0.0000   256.0000 </r>
       <r>    -8.6064     0.0000   256.0000 </r>
       <r>    -8.4933     0.0000   256.0000 </r>
       <r>    -8.3803     0.0000   256.0000 </r>
       <r>    -8.2672     0.0000   256.0000 </r>
       <r>    -8.1542     0.0000   256.0000 </r>
       <r>    -8.0411     0.0000   256.0000 </r>
       <r>    -7.9281     0.0000   256.0000 </r>
       <r>    -7.8150     0.0000   256.0000 </r>
       <r>    -7.7020     0.0000   256.0000 </r>
       <r>    -7.5889     0.0000   256.0000 </r>
       <r>    -7.4759     0.0000   256.0000 </r>
       <r>    -7.3628     0.0000   256.0000 </r>
       <r>    -7.2498     0.0000   256.0000 </r>
       <r>    -7.1367     0.0000   256.0000 </r>
       <r>    -7.0237     0.0000   256.0000 </r>
       <r>    -6.9106     0.0000   256.0000 </r>
       <r>    -6.7976     0.0000   256.0000 </r>
       <r>    -6.6845     0.0000   256.0000 </r>
       <r>    -6.5715     0.0000   256.0000 </r>
       <r>    -6.4584     0.0000   256.0000 </r>
       <r>    -6.3454     0.0000   256.0000 </r>
       <r>    -6.2323     0.0000   256.0000 </r>
       <r>    -6.1193     0.0000   256.0000 </r>
       <r>    -6.0062     0.0000   256.0000 </r>
       <r>    -5.8932     0.0000   256.0000 </r>
       <r>    -5.7801     0.0000   256.0000 </r>
       <r>    -5.6671     0.0000   256.0000 </r>
       <r>    -5.5540     0.0000   256.0000 </r>
       <r>    -5.4410     0.0000   256.0000 </r>
       <r>    -5.3279     0.0000   256.0000 </r>
       <r>    -5.2149     0.0000   256.0000 </r>
       <r>    -5.1018     0.0000   256.0000 </r>
       <r>    -4.9888     0.0000   256.0000 </r>
       <r>    -4.8757     0.0000   256.0000 </r>
       <r>    -4.7627     0.0000   256.0000 </r>
       <r>    -4.6496     0.0000   256.0000 </r>
       <r>    -4.5366     0.0000   256.0000 </r>
       <r>    -4.4235     0.0000   256.0000 </r>
       <r>    -4.3105     0.0000   256.0000 </r>
       <r>    -4.1974     0.0000   256.0000 </r>
       <r>    -4.0844     0.0000   256.0000 </r>
       <r>    -3.9713     0.0000   256.0000 </r>
       <r>    -3.8583     0.0000   256.0000 </r>
       <r>    -3.7452     0.0000   256.0000 </r>
       <r>    -3.6322     0.0000   256.0000 </r>
       <r>    -3.5191     0.0000   256.0000 </r>
       <r>    -3.4061     0.0000   256.0000 </r>
       <r>    -3.2930     0.0000   256.0000 </r>
       <r>    -3.1800     0.0000   256.0000 </r>
       <r>    -3.0669     0.0000   256.0000 </r>
       <r>    -2.9539     0.0000   256.0000 </r>
       <r>    -2.8408     0.0000   256.0000 </r>
       <r>    -2.7278     0.2199   256.0249 </r>
       <r>    -2.6147     8.6257   257.0000 </r>
       <r>    -2.5017    30.5498   260.4537 </r>
       <r>    -2.3886    79.8752   269.4836 </r>
       <r>    -2.2756    85.7344   279.1759 </r>
       <r>    -2.1625   152.8062   296.4512 </r>
       <r>    -2.0495    68.9851   304.2500 </r>
       <r>    -1.9364    58.5327   310.8672 </r>
       <r>    -1.8234    66.3366   318.3679 </r>
       <r>    -1.7103    65.2989   325.7500 </r>
       <r>    -1.5973     0.0000   325.7500 </r>
       <r>    -1.4842    86.7971   335.5624 </r>
       <r>    -1.3712   184.2342   356.3901 </r>
       <r>    -1.2581    21.6321   358.8357 </r>
       <r>    -1.1451   260.8773   388.3279 </r>
       <r>    -1.0320   132.2857   403.2836 </r>
       <r>    -0.9190   262.2778   432.9344 </r>
       <r>    -0.8059    59.7206   439.6863 </r>
       <r>    -0.6929    67.0466   447.2659 </r>
       <r>    -0.5798     6.4901   448.0000 </r>
       <r>    -0.4668     0.0000   448.0000 </r>
       <r>    -0.3537     0.0000   448.0000 </r>
       <r>    -0.2407     0.0000   448.0000 </r>
       <r>    -0.1276     0.0000   448.0000 </r>
       <r>    -0.0146     0.0000   448.0000 </r>
       <r>     0.0985     0.0000   448.0000 </r>
       <r>     0.2115     0.0000   448.0000 </r>
       <r>     0.3246     0.0000   448.0000 </r>
       <r>     0.4376     0.0000   448.0000 </r>
       <r>     0.5507     0.0000   448.0000 </r>
       <r>     0.6637     0.0000   448.0000 </r>
       <r>     0.7768     0.0000   448.0000 </r>
       <r>     0.8898     0.0000   448.0000 </r>
       <r>     1.0029     0.0000   448.0000 </r>
       <r>     1.1159     0.0000   448.0000 </r>
       <r>     1.2290     0.0000   448.0000 </r>
       <r>     1.3420     0.0000   448.0000 </r>
       <r>     1.4551     0.0000   448.0000 </r>
       <r>     1.5681     0.0000   448.0000 </r>
       <r>     1.6812     0.0000   448.0000 </r>
       <r>     1.7942     0.0000   448.0000 </r>
       <r>     1.9073     0.0000   448.0000 </r>
       <r>     2.0203     0.0000   448.0000 </r>
       <r>     2.1334     0.0000   448.0000 </r>
       <r>     2.2464     0.0000   448.0000 </r>
       <r>     2.3595     0.0000   448.0000 </r>
       <r>     2.4725     0.0000   448.0000 </r>
       <r>     2.5856     0.0000   448.0000 </r>
       <r>     2.6986     0.0000   448.0000 </r>
       <r>     2.8117     0.0000   448.0000 </r>
       <r>     2.9247     0.0000   448.0000 </r>
       <r>     3.0378     0.0000   448.0000 </r>
       <r>     3.1508     0.0000   448.0000 </r>
       <r>     3.2639     0.0000   448.0000 </r>
       <r>     3.3769     0.0000   448.0000 </r>
       <r>     3.4900     0.0000   448.0000 </r>
       <r>     3.6030     0.0000   448.0000 </r>
       <r>     3.7161     0.0000   448.0000 </r>
       <r>     3.8291     0.0000   448.0000 </r>
       <r>     3.9422     0.0000   448.0000 </r>
       <r>     4.0552     0.0000   448.0000 </r>
       <r>     4.1683     0.0000   448.0000 </r>
       <r>     4.2814     0.0000   448.0000 </r>
       <r>     4.3944     2.2112   448.2500 </r>
       <r>     4.5075     0.0000   448.2500 </r>
       <r>     4.6205     0.0000   448.2500 </r>
       <r>     4.7336     0.0000   448.2500 </r>
       <r>     4.8466     0.0000   448.2500 </r>
       <r>     4.9597     0.0001   448.2500 </r>
       <r>     5.0727    13.2654   449.7497 </r>
       <r>     5.1858     0.0012   449.7500 </r>
       <r>     5.2988     0.0000   449.7500 </r>
       <r>     5.4119     0.0000   449.7500 </r>
       <r>     5.5249     4.2807   450.2339 </r>
       <r>     5.6380    22.2562   452.7500 </r>
       <r>     5.7510     0.0000   452.7500 </r>
       <r>     5.8641    17.4247   454.7199 </r>
       <r>     5.9771     0.2666   454.7500 </r>
       <r>     6.0902     0.0000   454.7500 </r>
       <r>     6.2032     0.0000   454.7500 </r>
       <r>     6.3163     0.0030   454.7503 </r>
       <r>     6.4293    14.4837   456.3877 </r>
       <r>     6.5424     7.6272   457.2500 </r>
       <r>     6.6554    46.0910   462.4606 </r>
       <r>     6.7685    60.0373   469.2478 </r>
       <r>     6.8815    59.4941   475.9745 </r>
       <r>     6.9946    12.8219   477.4241 </r>
       <r>     7.1076     0.6718   477.5000 </r>
       <r>     7.2207     5.5474   478.1271 </r>
       <r>     7.3337     1.6943   478.3187 </r>
       <r>     7.4468    83.1965   487.7241 </r>
       <r>     7.5598   166.8874   506.5917 </r>
       <r>     7.6729     1.4504   506.7556 </r>
       <r>     7.7859    26.4871   509.7500 </r>
       <r>     7.8990     0.4820   509.8045 </r>
       <r>     8.0120    52.5917   515.7500 </r>
       <r>     8.1251     0.0192   515.7522 </r>
       <r>     8.2381    14.8827   517.4347 </r>
       <r>     8.3512    91.2426   527.7497 </r>
       <r>     8.4642     0.0000   527.7500 </r>
       <r>     8.5773   152.9376   545.0396 </r>
       <r>     8.6903     6.2815   545.7500 </r>
       <r>     8.8034     0.0000   545.7500 </r>
       <r>     8.9164    87.3319   555.6229 </r>
       <r>     9.0295   120.6111   569.2580 </r>
       <r>     9.1425     2.1407   569.5000 </r>
       <r>     9.2556    28.1740   572.6851 </r>
       <r>     9.3686    16.0541   574.5000 </r>
       <r>     9.4817     1.4008   574.6584 </r>
       <r>     9.5947    11.8677   576.0000 </r>
       <r>     9.7078     0.0000   576.0000 </r>
       <r>     9.8208     0.0000   576.0000 </r>
       <r>     9.9339     0.0000   576.0000 </r>
       <r>    10.0469     0.0000   576.0000 </r>
       <r>    10.1600     0.0000   576.0000 </r>
       <r>    10.2730     0.0000   576.0000 </r>
       <r>    10.3861     0.0000   576.0000 </r>
       <r>    10.4991     0.0000   576.0000 </r>
       <r>    10.6122     0.0000   576.0000 </r>
       <r>    10.7252     0.0000   576.0000 </r>
       <r>    10.8383     0.0000   576.0000 </r>
       <r>    10.9513     0.0000   576.0000 </r>
       <r>    11.0644     0.0000   576.0000 </r>
      </set>
     </set>
    </array>
   </total>
  </dos>
 </calculation>
 <structure name="finalpos" >
  <crystal>
   <varray name="basis" >
    <v>      11.20400236       0.00000000       0.00000000 </v>
    <v>       0.00000000      11.20400236       0.00000000 </v>
    <v>       0.00000000       0.00000000      11.20400236 </v>
   </varray>
   <i name="volume">   1406.43470641 </i>
   <varray name="rec_basis" >
    <v>       0.08925382       0.00000000       0.00000000 </v>
    <v>       0.00000000       0.08925382       0.00000000 </v>
    <v>       0.00000000       0.00000000       0.08925382 </v>
   </varray>
  </crystal>
  <varray name="positions" >
   <v>       0.00267761       0.00000000       0.00000000 </v>
   <v>       0.25000000       0.25000000       0.00000000 </v>
   <v>       0.25000000       0.00000000       0.25000000 </v>
   <v>       0.00000000       0.25000000       0.25000000 </v>
   <v>       0.00000000       0.00000000       0.50000000 </v>
   <v>       0.25000000       0.25000000       0.50000000 </v>
   <v>       0.25000000       0.00000000       0.75000000 </v>
   <v>       0.00000000       0.25000000       0.75000000 </v>
   <v>       0.00000000       0.50000000       0.00000000 </v>
   <v>       0.25000000       0.75000000       0.00000000 </v>
   <v>       0.25000000       0.50000000       0.25000000 </v>
   <v>       0.00000000       0.75000000       0.25000000 </v>
   <v>       0.00000000       0.50000000       0.50000000 </v>
   <v>       0.25000000       0.75000000       0.50000000 </v>
   <v>       0.25000000       0.50000000       0.75000000 </v>
   <v>       0.00000000       0.75000000       0.75000000 </v>
   <v>       0.50000000       0.00000000       0.00000000 </v>
   <v>       0.75000000       0.25000000       0.00000000 </v>
   <v>       0.75000000       0.00000000       0.25000000 </v>
   <v>       0.50000000       0.25000000       0.25000000 </v>
   <v>       0.50000000       0.00000000       0.50000000 </v>
   <v>       0.75000000       0.25000000       0.50000000 </v>
   <v>       0.75000000       0.00000000       0.75000000 </v>
   <v>       0.50000000       0.25000000       0.75000000 </v>
   <v>       0.50000000       0.50000000       0.00000000 </v>
   <v>       0.75000000       0.75000000       0.00000000 </v>
   <v>       0.75000000       0.50000000       0.25000000 </v>
   <v>       0.50000000       0.75000000       0.25000000 </v>
   <v>       0.50000000       0.50000000       0.50000000 </v>
   <v>       0.75000000       0.75000000       0.50000000 </v>
   <v>       0.75000000       0.50000000       0.75000000 </v>
   <v>       0.50000000       0.75000000       0.75000000 </v>
   <v>       0.24732239       0.25000000       0.25000000 </v>
   <v>       0.00000000       0.00000000       0.25000000 </v>
   <v>       0.00000000       0.25000000       0.00000000 </v>
   <v>       0.25000000       0.00000000       0.00000000 </v>
   <v>       0.25000000       0.25000000       0.75000000 </v>
   <v>       0.00000000       0.00000000       0.75000000 </v>
   <v>       0.00000000       0.25000000       0.50000000 </v>
   <v>       0.25000000       0.00000000       0.50000000 </v>
   <v>       0.25000000       0.75000000       0.25000000 </v>
   <v>       0.00000000       0.50000000       0.25000000 </v>
   <v>       0.00000000       0.75000000       0.00000000 </v>
   <v>       0.25000000       0.50000000       0.00000000 </v>
   <v>       0.25000000       0.75000000       0.75000000 </v>
   <v>       0.00000000       0.50000000       0.75000000 </v>
   <v>       0.00000000       0.75000000       0.50000000 </v>
   <v>       0.25000000       0.50000000       0.50000000 </v>
   <v>       0.75000000       0.25000000       0.25000000 </v>
   <v>       0.50000000       0.00000000       0.25000000 </v>
   <v>       0.50000000       0.25000000       0.00000000 </v>
   <v>       0.75000000       0.00000000       0.00000000 </v>
   <v>       0.75000000       0.25000000       0.75000000 </v>
   <v>       0.50000000       0.00000000       0.75000000 </v>
   <v>       0.50000000       0.25000000       0.50000000 </v>
   <v>       0.75000000       0.00000000       0.50000000 </v>
   <v>       0.75000000       0.75000000       0.25000000 </v>
   <v>       0.50000000       0.50000000       0.25000000 </v>
   <v>       0.50000000       0.75000000       0.00000000 </v>
   <v>       0.75000000       0.50000000       0.00000000 </v>
   <v>       0.75000000       0.75000000       0.75000000 </v>
   <v>       0.50000000       0.50000000       0.75000000 </v>
   <v>       0.50000000       0.75000000       0.50000000 </v>
   <v>       0.75000000       0.50000000       0.50000000 </v>
  </varray>
 </structure>
</modeling>
