  64  64   0   0
  0.2197554E+02  0.1120400E-08  0.1120400E-08  0.1120400E-08  0.5000000E-15
  1.000000000000000E-004
  CAR 
 unknown system                          
     11.04597686    -22.84989342  301     -0.56335871      1.00000000
    -22.850  0.0000E+00  0.0000E+00
    -22.737  0.0000E+00  0.0000E+00
    -22.624  0.0000E+00  0.0000E+00
    -22.511  0.0000E+00  0.0000E+00
    -22.398  0.0000E+00  0.0000E+00
    -22.285  0.0000E+00  0.0000E+00
    -22.172  0.0000E+00  0.0000E+00
    -22.059  0.0000E+00  0.0000E+00
    -21.946  0.0000E+00  0.0000E+00
    -21.833  0.0000E+00  0.0000E+00
    -21.720  0.0000E+00  0.0000E+00
    -21.607  0.0000E+00  0.0000E+00
    -21.494  0.0000E+00  0.0000E+00
    -21.381  0.7227E-05  0.8166E-06
    -21.268  0.1304E+04  0.1473E+03
    -21.155  0.3953E+03  0.1920E+03
    -21.042  0.0000E+00  0.1920E+03
    -20.929  0.0000E+00  0.1920E+03
    -20.816  0.0000E+00  0.1920E+03
    -20.703  0.0000E+00  0.1920E+03
    -20.590  0.0000E+00  0.1920E+03
    -20.477  0.0000E+00  0.1920E+03
    -20.364  0.0000E+00  0.1920E+03
    -20.251  0.0000E+00  0.1920E+03
    -20.138  0.0000E+00  0.1920E+03
    -20.025  0.0000E+00  0.1920E+03
    -19.912  0.0000E+00  0.1920E+03
    -19.799  0.0000E+00  0.1920E+03
    -19.686  0.0000E+00  0.1920E+03
    -19.573  0.0000E+00  0.1920E+03
    -19.460  0.0000E+00  0.1920E+03
    -19.347  0.0000E+00  0.1920E+03
    -19.234  0.0000E+00  0.1920E+03
    -19.121  0.0000E+00  0.1920E+03
    -19.008  0.0000E+00  0.1920E+03
    -18.895  0.0000E+00  0.1920E+03
    -18.782  0.0000E+00  0.1920E+03
    -18.669  0.0000E+00  0.1920E+03
    -18.556  0.0000E+00  0.1920E+03
    -18.443  0.0000E+00  0.1920E+03
    -18.330  0.0000E+00  0.1920E+03
    -18.217  0.0000E+00  0.1920E+03
    -18.104  0.0000E+00  0.1920E+03
    -17.991  0.0000E+00  0.1920E+03
    -17.878  0.0000E+00  0.1920E+03
    -17.766  0.0000E+00  0.1920E+03
    -17.653  0.0000E+00  0.1920E+03
    -17.540  0.0000E+00  0.1920E+03
    -17.427  0.0000E+00  0.1920E+03
    -17.314  0.0000E+00  0.1920E+03
    -17.201  0.0000E+00  0.1920E+03
    -17.088  0.0000E+00  0.1920E+03
    -16.975  0.0000E+00  0.1920E+03
    -16.862  0.0000E+00  0.1920E+03
    -16.749  0.0000E+00  0.1920E+03
    -16.636  0.0000E+00  0.1920E+03
    -16.523  0.0000E+00  0.1920E+03
    -16.410  0.0000E+00  0.1920E+03
    -16.297  0.0000E+00  0.1920E+03
    -16.184  0.0000E+00  0.1920E+03
    -16.071  0.0000E+00  0.1920E+03
    -15.958  0.0000E+00  0.1920E+03
    -15.845  0.0000E+00  0.1920E+03
    -15.732  0.0000E+00  0.1920E+03
    -15.619  0.0000E+00  0.1920E+03
    -15.506  0.0000E+00  0.1920E+03
    -15.393  0.0000E+00  0.1920E+03
    -15.280  0.0000E+00  0.1920E+03
    -15.167  0.0000E+00  0.1920E+03
    -15.054  0.0000E+00  0.1920E+03
    -14.941  0.0000E+00  0.1920E+03
    -14.828  0.0000E+00  0.1920E+03
    -14.715  0.0000E+00  0.1920E+03
    -14.602  0.0000E+00  0.1920E+03
    -14.489  0.0000E+00  0.1920E+03
    -14.376  0.0000E+00  0.1920E+03
    -14.263  0.0000E+00  0.1920E+03
    -14.150  0.0000E+00  0.1920E+03
    -14.037  0.0000E+00  0.1920E+03
    -13.924  0.0000E+00  0.1920E+03
    -13.811  0.0000E+00  0.1920E+03
    -13.698  0.0000E+00  0.1920E+03
    -13.585  0.0000E+00  0.1920E+03
    -13.472  0.8598E-15  0.1920E+03
    -13.359  0.1045E+01  0.1921E+03
    -13.246  0.1873E+02  0.1942E+03
    -13.133  0.4859E+02  0.1997E+03
    -13.020  0.1242E+03  0.2138E+03
    -12.907  0.3679E+03  0.2553E+03
    -12.794  0.6013E+01  0.2560E+03
    -12.681  0.0000E+00  0.2560E+03
    -12.568  0.0000E+00  0.2560E+03
    -12.455  0.0000E+00  0.2560E+03
    -12.342  0.0000E+00  0.2560E+03
    -12.229  0.0000E+00  0.2560E+03
    -12.116  0.0000E+00  0.2560E+03
    -12.003  0.0000E+00  0.2560E+03
    -11.890  0.0000E+00  0.2560E+03
    -11.777  0.0000E+00  0.2560E+03
    -11.664  0.0000E+00  0.2560E+03
    -11.551  0.0000E+00  0.2560E+03
    -11.438  0.0000E+00  0.2560E+03
    -11.325  0.0000E+00  0.2560E+03
    -11.212  0.0000E+00  0.2560E+03
    -11.099  0.0000E+00  0.2560E+03
    -10.986  0.0000E+00  0.2560E+03
    -10.873  0.0000E+00  0.2560E+03
    -10.760  0.0000E+00  0.2560E+03
    -10.647  0.0000E+00  0.2560E+03
    -10.534  0.0000E+00  0.2560E+03
    -10.421  0.0000E+00  0.2560E+03
    -10.308  0.0000E+00  0.2560E+03
    -10.195  0.0000E+00  0.2560E+03
    -10.082  0.0000E+00  0.2560E+03
     -9.969  0.0000E+00  0.2560E+03
     -9.856  0.0000E+00  0.2560E+03
     -9.743  0.0000E+00  0.2560E+03
     -9.631  0.0000E+00  0.2560E+03
     -9.518  0.0000E+00  0.2560E+03
     -9.405  0.0000E+00  0.2560E+03
     -9.292  0.0000E+00  0.2560E+03
     -9.179  0.0000E+00  0.2560E+03
     -9.066  0.0000E+00  0.2560E+03
     -8.953  0.0000E+00  0.2560E+03
     -8.840  0.0000E+00  0.2560E+03
     -8.727  0.0000E+00  0.2560E+03
     -8.614  0.0000E+00  0.2560E+03
     -8.501  0.0000E+00  0.2560E+03
     -8.388  0.0000E+00  0.2560E+03
     -8.275  0.0000E+00  0.2560E+03
     -8.162  0.0000E+00  0.2560E+03
     -8.049  0.0000E+00  0.2560E+03
     -7.936  0.0000E+00  0.2560E+03
     -7.823  0.0000E+00  0.2560E+03
     -7.710  0.0000E+00  0.2560E+03
     -7.597  0.0000E+00  0.2560E+03
     -7.484  0.0000E+00  0.2560E+03
     -7.371  0.0000E+00  0.2560E+03
     -7.258  0.0000E+00  0.2560E+03
     -7.145  0.0000E+00  0.2560E+03
     -7.032  0.0000E+00  0.2560E+03
     -6.919  0.0000E+00  0.2560E+03
     -6.806  0.0000E+00  0.2560E+03
     -6.693  0.0000E+00  0.2560E+03
     -6.580  0.0000E+00  0.2560E+03
     -6.467  0.0000E+00  0.2560E+03
     -6.354  0.0000E+00  0.2560E+03
     -6.241  0.0000E+00  0.2560E+03
     -6.128  0.0000E+00  0.2560E+03
     -6.015  0.0000E+00  0.2560E+03
     -5.902  0.0000E+00  0.2560E+03
     -5.789  0.0000E+00  0.2560E+03
     -5.676  0.0000E+00  0.2560E+03
     -5.563  0.0000E+00  0.2560E+03
     -5.450  0.0000E+00  0.2560E+03
     -5.337  0.0000E+00  0.2560E+03
     -5.224  0.0000E+00  0.2560E+03
     -5.111  0.0000E+00  0.2560E+03
     -4.998  0.0000E+00  0.2560E+03
     -4.885  0.0000E+00  0.2560E+03
     -4.772  0.0000E+00  0.2560E+03
     -4.659  0.0000E+00  0.2560E+03
     -4.546  0.0000E+00  0.2560E+03
     -4.433  0.0000E+00  0.2560E+03
     -4.320  0.0000E+00  0.2560E+03
     -4.207  0.0000E+00  0.2560E+03
     -4.094  0.0000E+00  0.2560E+03
     -3.981  0.0000E+00  0.2560E+03
     -3.868  0.0000E+00  0.2560E+03
     -3.755  0.0000E+00  0.2560E+03
     -3.642  0.0000E+00  0.2560E+03
     -3.529  0.0000E+00  0.2560E+03
     -3.416  0.0000E+00  0.2560E+03
     -3.303  0.0000E+00  0.2560E+03
     -3.190  0.0000E+00  0.2560E+03
     -3.077  0.0000E+00  0.2560E+03
     -2.964  0.0000E+00  0.2560E+03
     -2.851  0.0000E+00  0.2560E+03
     -2.738  0.2965E-01  0.2560E+03
     -2.625  0.8821E+01  0.2570E+03
     -2.512  0.1529E+02  0.2587E+03
     -2.399  0.8827E+02  0.2687E+03
     -2.286  0.7947E+02  0.2777E+03
     -2.173  0.1585E+03  0.2956E+03
     -2.060  0.7669E+02  0.3043E+03
     -1.947  0.5438E+02  0.3104E+03
     -1.834  0.5490E+02  0.3166E+03
     -1.721  0.8102E+02  0.3257E+03
     -1.608  0.5971E-11  0.3258E+03
     -1.495  0.4822E+02  0.3312E+03
     -1.383  0.2117E+03  0.3551E+03
     -1.270  0.3174E+02  0.3587E+03
     -1.157  0.2379E+03  0.3856E+03
     -1.044  0.1496E+03  0.4025E+03
     -0.931  0.2442E+03  0.4301E+03
     -0.818  0.7420E+02  0.4384E+03
     -0.705  0.7769E+02  0.4472E+03
     -0.592  0.6837E+01  0.4480E+03
     -0.479  0.0000E+00  0.4480E+03
     -0.366  0.0000E+00  0.4480E+03
     -0.253  0.0000E+00  0.4480E+03
     -0.140  0.0000E+00  0.4480E+03
     -0.027  0.0000E+00  0.4480E+03
      0.086  0.0000E+00  0.4480E+03
      0.199  0.0000E+00  0.4480E+03
      0.312  0.0000E+00  0.4480E+03
      0.425  0.0000E+00  0.4480E+03
      0.538  0.0000E+00  0.4480E+03
      0.651  0.0000E+00  0.4480E+03
      0.764  0.0000E+00  0.4480E+03
      0.877  0.0000E+00  0.4480E+03
      0.990  0.0000E+00  0.4480E+03
      1.103  0.0000E+00  0.4480E+03
      1.216  0.0000E+00  0.4480E+03
      1.329  0.0000E+00  0.4480E+03
      1.442  0.0000E+00  0.4480E+03
      1.555  0.0000E+00  0.4480E+03
      1.668  0.0000E+00  0.4480E+03
      1.781  0.0000E+00  0.4480E+03
      1.894  0.0000E+00  0.4480E+03
      2.007  0.0000E+00  0.4480E+03
      2.120  0.0000E+00  0.4480E+03
      2.233  0.0000E+00  0.4480E+03
      2.346  0.0000E+00  0.4480E+03
      2.459  0.0000E+00  0.4480E+03
      2.572  0.0000E+00  0.4480E+03
      2.685  0.0000E+00  0.4480E+03
      2.798  0.0000E+00  0.4480E+03
      2.911  0.0000E+00  0.4480E+03
      3.024  0.0000E+00  0.4480E+03
      3.137  0.0000E+00  0.4480E+03
      3.250  0.0000E+00  0.4480E+03
      3.363  0.0000E+00  0.4480E+03
      3.476  0.0000E+00  0.4480E+03
      3.589  0.0000E+00  0.4480E+03
      3.702  0.0000E+00  0.4480E+03
      3.815  0.0000E+00  0.4480E+03
      3.928  0.0000E+00  0.4480E+03
      4.041  0.0000E+00  0.4480E+03
      4.154  0.0000E+00  0.4480E+03
      4.267  0.2269E-06  0.4480E+03
      4.380  0.2207E+01  0.4482E+03
      4.493  0.5747E-02  0.4482E+03
      4.606  0.0000E+00  0.4482E+03
      4.719  0.0000E+00  0.4482E+03
      4.832  0.0000E+00  0.4482E+03
      4.945  0.4047E-06  0.4483E+03
      5.058  0.1319E+02  0.4497E+03
      5.171  0.8965E-01  0.4498E+03
      5.284  0.0000E+00  0.4498E+03
      5.397  0.0000E+00  0.4498E+03
      5.510  0.5618E+00  0.4498E+03
      5.623  0.2599E+02  0.4527E+03
      5.736  0.1212E-08  0.4528E+03
      5.849  0.1546E+02  0.4545E+03
      5.962  0.2240E+01  0.4548E+03
      6.075  0.0000E+00  0.4548E+03
      6.188  0.0000E+00  0.4548E+03
      6.301  0.2926E-04  0.4548E+03
      6.414  0.1338E+02  0.4563E+03
      6.527  0.8743E+01  0.4572E+03
      6.640  0.2723E+02  0.4603E+03
      6.752  0.7841E+02  0.4692E+03
      6.865  0.5688E+02  0.4756E+03
      6.978  0.1268E+02  0.4770E+03
      7.091  0.4039E+01  0.4775E+03
      7.204  0.2882E+01  0.4778E+03
      7.317  0.3780E+01  0.4783E+03
      7.430  0.7893E+02  0.4872E+03
      7.543  0.1621E+03  0.5055E+03
      7.656  0.1115E+02  0.5068E+03
      7.769  0.2655E+02  0.5097E+03
      7.882  0.1174E-01  0.5098E+03
      7.995  0.5309E+02  0.5157E+03
      8.108  0.2341E-03  0.5158E+03
      8.221  0.1335E+02  0.5173E+03
      8.334  0.9270E+02  0.5277E+03
      8.447  0.1556E+00  0.5278E+03
      8.560  0.1287E+03  0.5423E+03
      8.673  0.3062E+02  0.5457E+03
      8.786  0.6157E-08  0.5458E+03
      8.899  0.6520E+02  0.5531E+03
      9.012  0.1302E+03  0.5678E+03
      9.125  0.1477E+02  0.5695E+03
      9.238  0.1111E+02  0.5708E+03
      9.351  0.3314E+02  0.5745E+03
      9.464  0.2083E+00  0.5745E+03
      9.577  0.1307E+02  0.5760E+03
      9.690  0.0000E+00  0.5760E+03
      9.803  0.0000E+00  0.5760E+03
      9.916  0.0000E+00  0.5760E+03
     10.029  0.0000E+00  0.5760E+03
     10.142  0.0000E+00  0.5760E+03
     10.255  0.0000E+00  0.5760E+03
     10.368  0.0000E+00  0.5760E+03
     10.481  0.0000E+00  0.5760E+03
     10.594  0.0000E+00  0.5760E+03
     10.707  0.0000E+00  0.5760E+03
     10.820  0.0000E+00  0.5760E+03
     10.933  0.0000E+00  0.5760E+03
     11.046  0.0000E+00  0.5760E+03
