       N       E                     dE             d eps       ncg     rms          rms(c)
DAV:   1     0.431679217733E+04    0.43168E+04   -0.17182E+05  3456   0.125E+03
DAV:   2     0.363413284791E+03   -0.39534E+04   -0.37615E+04  3840   0.367E+02
DAV:   3    -0.206227387881E+03   -0.56964E+03   -0.56541E+03  4224   0.156E+02
DAV:   4    -0.228194284806E+03   -0.21967E+02   -0.21869E+02  4160   0.331E+01
DAV:   5    -0.229003396446E+03   -0.80911E+00   -0.80766E+00  4288   0.615E+00    0.106E+01
DAV:   6    -0.224139759672E+03    0.48636E+01   -0.94587E+00  4288   0.528E+00    0.775E+00
DAV:   7    -0.223777976088E+03    0.36178E+00   -0.20761E+00  4672   0.236E+00    0.533E+00
DAV:   8    -0.223903329795E+03   -0.12535E+00   -0.26663E-01  4000   0.124E+00    0.143E+00
DAV:   9    -0.223897679450E+03    0.56503E-02   -0.11528E-02  4288   0.263E-01    0.608E-01
DAV:  10    -0.223901950671E+03   -0.42712E-02   -0.18647E-02  3968   0.230E-01    0.293E-01
DAV:  11    -0.223901206208E+03    0.74446E-03   -0.16249E-03  4448   0.824E-02    0.896E-02
DAV:  12    -0.223901166697E+03    0.39511E-04   -0.14812E-04  4480   0.231E-02    0.181E-02
DAV:  13    -0.223901164924E+03    0.17733E-05   -0.28771E-05  4000   0.871E-03    0.509E-03
DAV:  14    -0.223901166997E+03   -0.20734E-05   -0.22127E-06  4160   0.365E-03    0.828E-03
DAV:  15    -0.223901168208E+03   -0.12107E-05   -0.42169E-07  4096   0.167E-03    0.325E-03
DAV:  16    -0.223901168642E+03   -0.43374E-06   -0.11185E-07  4192   0.794E-04    0.870E-04
DAV:  17    -0.223901168686E+03   -0.43670E-07   -0.87160E-09  2656   0.547E-04    0.354E-04
DAV:  18    -0.223901168807E+03   -0.12173E-06   -0.11389E-08  2880   0.646E-04    0.491E-04
DAV:  19    -0.223901168799E+03    0.79235E-08   -0.59508E-09  2272   0.233E-04
   1 F= -.22390117E+03 E0= -.22390117E+03  d E =-.285101E-13
