<?xml version="1.0" encoding="ISO-8859-1"?>
<modeling>
 <generator>
  <i name="program" type="string">vasp </i>
  <i name="version" type="string">6.3.2  </i>
  <i name="subversion" type="string">27Jun22 (build Oct 14 2022 12:13:54) complex                          parallel </i>
  <i name="platform" type="string">LinuxIFC </i>
  <i name="date" type="string">2025 08 28 </i>
  <i name="time" type="string">22:07:55 </i>
 </generator>
 <incar>
  <i type="string" name="PREC">Accurate</i>
  <i type="int" name="IALGO">    38</i>
  <i type="logical" name="ADDGRID"> T  </i>
  <i type="int" name="NELMIN">     5</i>
  <i type="int" name="IBRION">    -1</i>
  <i name="EDIFF">      0.00000001</i>
  <i name="ENCUT">    341.21360000</i>
  <i type="logical" name="LREAL"> F  </i>
  <i type="int" name="ISMEAR">     0</i>
  <i name="SIGMA">      0.02000000</i>
  <i type="logical" name="LWAVE"> F  </i>
  <i type="logical" name="LCHARG"> F  </i>
  <i type="string" name="GGA">PS</i>
 </incar>
 <primitive_cell>
  <structure name="primitive_cell" >
   <crystal>
    <varray name="basis" >
     <v>      11.20400236       0.00000000       0.00000000 </v>
     <v>       0.00000000      11.20400236       0.00000000 </v>
     <v>       0.00000000       0.00000000      11.20400236 </v>
    </varray>
    <i name="volume">   1406.43470641 </i>
    <varray name="rec_basis" >
     <v>       0.08925382       0.00000000       0.00000000 </v>
     <v>       0.00000000       0.08925382       0.00000000 </v>
     <v>       0.00000000       0.00000000       0.08925382 </v>
    </varray>
   </crystal>
   <varray name="positions" >
    <v>       0.99732239       0.00000000       0.00000000 </v>
    <v>       0.25000000       0.25000000       0.00000000 </v>
    <v>       0.25000000       0.00000000       0.25000000 </v>
    <v>       0.00000000       0.25000000       0.25000000 </v>
    <v>       0.00000000       0.00000000       0.50000000 </v>
    <v>       0.25000000       0.25000000       0.50000000 </v>
    <v>       0.25000000       0.00000000       0.75000000 </v>
    <v>       0.00000000       0.25000000       0.75000000 </v>
    <v>       0.00000000       0.50000000       0.00000000 </v>
    <v>       0.25000000       0.75000000       0.00000000 </v>
    <v>       0.25000000       0.50000000       0.25000000 </v>
    <v>       0.00000000       0.75000000       0.25000000 </v>
    <v>       0.00000000       0.50000000       0.50000000 </v>
    <v>       0.25000000       0.75000000       0.50000000 </v>
    <v>       0.25000000       0.50000000       0.75000000 </v>
    <v>       0.00000000       0.75000000       0.75000000 </v>
    <v>       0.50000000       0.00000000       0.00000000 </v>
    <v>       0.75000000       0.25000000       0.00000000 </v>
    <v>       0.75000000       0.00000000       0.25000000 </v>
    <v>       0.50000000       0.25000000       0.25000000 </v>
    <v>       0.50000000       0.00000000       0.50000000 </v>
    <v>       0.75000000       0.25000000       0.50000000 </v>
    <v>       0.75000000       0.00000000       0.75000000 </v>
    <v>       0.50000000       0.25000000       0.75000000 </v>
    <v>       0.50000000       0.50000000       0.00000000 </v>
    <v>       0.75000000       0.75000000       0.00000000 </v>
    <v>       0.75000000       0.50000000       0.25000000 </v>
    <v>       0.50000000       0.75000000       0.25000000 </v>
    <v>       0.50000000       0.50000000       0.50000000 </v>
    <v>       0.75000000       0.75000000       0.50000000 </v>
    <v>       0.75000000       0.50000000       0.75000000 </v>
    <v>       0.50000000       0.75000000       0.75000000 </v>
    <v>       0.25000000       0.25000000       0.25000000 </v>
    <v>       0.00000000       0.00000000       0.25000000 </v>
    <v>       0.00000000       0.25000000       0.00000000 </v>
    <v>       0.24732239       0.00000000       0.00000000 </v>
    <v>       0.25000000       0.25000000       0.75000000 </v>
    <v>       0.00000000       0.00000000       0.75000000 </v>
    <v>       0.00000000       0.25000000       0.50000000 </v>
    <v>       0.25000000       0.00000000       0.50000000 </v>
    <v>       0.25000000       0.75000000       0.25000000 </v>
    <v>       0.00000000       0.50000000       0.25000000 </v>
    <v>       0.00000000       0.75000000       0.00000000 </v>
    <v>       0.25000000       0.50000000       0.00000000 </v>
    <v>       0.25000000       0.75000000       0.75000000 </v>
    <v>       0.00000000       0.50000000       0.75000000 </v>
    <v>       0.00000000       0.75000000       0.50000000 </v>
    <v>       0.25000000       0.50000000       0.50000000 </v>
    <v>       0.75000000       0.25000000       0.25000000 </v>
    <v>       0.50000000       0.00000000       0.25000000 </v>
    <v>       0.50000000       0.25000000       0.00000000 </v>
    <v>       0.75000000       0.00000000       0.00000000 </v>
    <v>       0.75000000       0.25000000       0.75000000 </v>
    <v>       0.50000000       0.00000000       0.75000000 </v>
    <v>       0.50000000       0.25000000       0.50000000 </v>
    <v>       0.75000000       0.00000000       0.50000000 </v>
    <v>       0.75000000       0.75000000       0.25000000 </v>
    <v>       0.50000000       0.50000000       0.25000000 </v>
    <v>       0.50000000       0.75000000       0.00000000 </v>
    <v>       0.75000000       0.50000000       0.00000000 </v>
    <v>       0.75000000       0.75000000       0.75000000 </v>
    <v>       0.50000000       0.50000000       0.75000000 </v>
    <v>       0.50000000       0.75000000       0.50000000 </v>
    <v>       0.75000000       0.50000000       0.50000000 </v>
   </varray>
  </structure>
  <varray name="primitive_index" >
   <v type="int" >        1 </v>
   <v type="int" >        2 </v>
   <v type="int" >        3 </v>
   <v type="int" >        4 </v>
   <v type="int" >        5 </v>
   <v type="int" >        6 </v>
   <v type="int" >        7 </v>
   <v type="int" >        8 </v>
   <v type="int" >        9 </v>
   <v type="int" >       10 </v>
   <v type="int" >       11 </v>
   <v type="int" >       12 </v>
   <v type="int" >       13 </v>
   <v type="int" >       14 </v>
   <v type="int" >       15 </v>
   <v type="int" >       16 </v>
   <v type="int" >       17 </v>
   <v type="int" >       18 </v>
   <v type="int" >       19 </v>
   <v type="int" >       20 </v>
   <v type="int" >       21 </v>
   <v type="int" >       22 </v>
   <v type="int" >       23 </v>
   <v type="int" >       24 </v>
   <v type="int" >       25 </v>
   <v type="int" >       26 </v>
   <v type="int" >       27 </v>
   <v type="int" >       28 </v>
   <v type="int" >       29 </v>
   <v type="int" >       30 </v>
   <v type="int" >       31 </v>
   <v type="int" >       32 </v>
   <v type="int" >       33 </v>
   <v type="int" >       34 </v>
   <v type="int" >       35 </v>
   <v type="int" >       36 </v>
   <v type="int" >       37 </v>
   <v type="int" >       38 </v>
   <v type="int" >       39 </v>
   <v type="int" >       40 </v>
   <v type="int" >       41 </v>
   <v type="int" >       42 </v>
   <v type="int" >       43 </v>
   <v type="int" >       44 </v>
   <v type="int" >       45 </v>
   <v type="int" >       46 </v>
   <v type="int" >       47 </v>
   <v type="int" >       48 </v>
   <v type="int" >       49 </v>
   <v type="int" >       50 </v>
   <v type="int" >       51 </v>
   <v type="int" >       52 </v>
   <v type="int" >       53 </v>
   <v type="int" >       54 </v>
   <v type="int" >       55 </v>
   <v type="int" >       56 </v>
   <v type="int" >       57 </v>
   <v type="int" >       58 </v>
   <v type="int" >       59 </v>
   <v type="int" >       60 </v>
   <v type="int" >       61 </v>
   <v type="int" >       62 </v>
   <v type="int" >       63 </v>
   <v type="int" >       64 </v>
  </varray>
 </primitive_cell>
 <kpoints>
  <generation param="Gamma">
   <v type="int" name="divisions">       2        2        2 </v>
   <v name="usershift">      0.00000000       0.00000000       0.00000000 </v>
   <v name="genvec1">      0.50000000       0.00000000       0.00000000 </v>
   <v name="genvec2">      0.00000000       0.50000000       0.00000000 </v>
   <v name="genvec3">      0.00000000       0.00000000       0.50000000 </v>
   <v name="shift">      0.00000000       0.00000000       0.00000000 </v>
  </generation>
  <varray name="kpointlist" >
   <v>       0.00000000       0.00000000       0.00000000 </v>
   <v>       0.50000000       0.00000000       0.00000000 </v>
   <v>       0.00000000       0.50000000       0.00000000 </v>
   <v>       0.50000000       0.50000000       0.00000000 </v>
   <v>       0.00000000       0.50000000       0.50000000 </v>
   <v>       0.50000000       0.50000000       0.50000000 </v>
  </varray>
  <varray name="weights" >
   <v>       0.12500000 </v>
   <v>       0.12500000 </v>
   <v>       0.25000000 </v>
   <v>       0.25000000 </v>
   <v>       0.12500000 </v>
   <v>       0.12500000 </v>
  </varray>
 </kpoints>
 <parameters>
  <separator name="general" >
   <i type="string" name="SYSTEM">unknown system</i>
   <i type="logical" name="LCOMPAT"> F  </i>
  </separator>
  <separator name="electronic" >
   <i type="string" name="PREC">accura</i>
   <i name="ENMAX">    341.21360000</i>
   <i name="ENAUG">    368.05600000</i>
   <i name="EDIFF">      0.00000001</i>
   <i type="int" name="IALGO">    38</i>
   <i type="int" name="IWAVPR">    10</i>
   <i type="int" name="NBANDS">   288</i>
   <i type="int" name="NBANDSLOW">    -1</i>
   <i type="int" name="NBANDSHIGH">    -1</i>
   <i name="NELECT">    448.00000000</i>
   <i type="int" name="TURBO">     0</i>
   <i type="int" name="IRESTART">     0</i>
   <i type="int" name="NREBOOT">     0</i>
   <i type="int" name="NMIN">     0</i>
   <i name="EREF">      0.00000000</i>
   <separator name="electronic smearing" >
    <i type="int" name="ISMEAR">     0</i>
    <i name="SIGMA">      0.02000000</i>
    <i name="KSPACING">      0.50000000</i>
    <i type="logical" name="KGAMMA"> T  </i>
    <i type="logical" name="KBLOWUP"> T  </i>
   </separator>
   <separator name="electronic projectors" >
    <i type="logical" name="LREAL"> F  </i>
    <v name="ROPT">      0.00000000      0.00000000</v>
    <i type="int" name="LMAXPAW">  -100</i>
    <i type="int" name="LMAXMIX">     2</i>
    <i type="logical" name="NLSPLINE"> F  </i>
   </separator>
   <separator name="electronic startup" >
    <i type="int" name="ISTART">     0</i>
    <i type="int" name="ICHARG">     2</i>
    <i type="int" name="INIWAV">     1</i>
   </separator>
   <separator name="electronic spin" >
    <i type="int" name="ISPIN">     1</i>
    <i type="logical" name="LNONCOLLINEAR"> F  </i>
    <v name="MAGMOM">      1.00000000      1.00000000      1.00000000      1.00000000      1.00000000      1.00000000      1.00000000      1.00000000      1.00000000      1.00000000      1.00000000      1.00000000      1.00000000      1.00000000      1.00000000      1.00000000      1.00000000      1.00000000      1.00000000      1.00000000
      1.00000000      1.00000000      1.00000000      1.00000000      1.00000000      1.00000000      1.00000000      1.00000000      1.00000000      1.00000000      1.00000000      1.00000000      1.00000000      1.00000000      1.00000000      1.00000000      1.00000000      1.00000000      1.00000000      1.00000000
      1.00000000      1.00000000      1.00000000      1.00000000      1.00000000      1.00000000      1.00000000      1.00000000      1.00000000      1.00000000      1.00000000      1.00000000      1.00000000      1.00000000      1.00000000      1.00000000      1.00000000      1.00000000      1.00000000      1.00000000
      1.00000000      1.00000000      1.00000000      1.00000000</v>
    <i name="NUPDOWN">     -1.00000000</i>
    <i type="logical" name="LSORBIT"> F  </i>
    <v name="SAXIS">      0.00000000      0.00000000      1.00000000</v>
    <i type="logical" name="LSPIRAL"> F  </i>
    <v name="QSPIRAL">      0.00000000      0.00000000      0.00000000</v>
    <i type="logical" name="LZEROZ"> F  </i>
   </separator>
   <separator name="electronic exchange-correlation" >
    <i type="logical" name="LASPH"> F  </i>
    <i type="logical" name="LMETAGGA"> F  </i>
   </separator>
   <separator name="electronic convergence" >
    <i type="int" name="NELM">    60</i>
    <i type="int" name="NELMDL">    -5</i>
    <i type="int" name="NELMIN">     5</i>
    <i name="ENINI">    341.21360000</i>
    <separator name="electronic convergence detail" >
     <i type="logical" name="LDIAG"> T  </i>
     <i type="logical" name="LSUBROT"> F  </i>
     <i name="WEIMIN">      0.00000000</i>
     <i name="EBREAK">      0.00000000</i>
     <i name="DEPER">      0.30000000</i>
     <i type="int" name="NRMM">     4</i>
     <i name="TIME">      0.40000000</i>
    </separator>
   </separator>
   <separator name="electronic mixer" >
    <i name="AMIX">      0.40000000</i>
    <i name="BMIX">      1.00000000</i>
    <i name="AMIN">      0.10000000</i>
    <i name="AMIX_MAG">      1.60000000</i>
    <i name="BMIX_MAG">      1.00000000</i>
    <separator name="electronic mixer details" >
     <i type="int" name="IMIX">     4</i>
     <i type="logical" name="MIXFIRST"> F  </i>
     <i type="int" name="MAXMIX">   -45</i>
     <i name="WC">    100.00000000</i>
     <i type="int" name="INIMIX">     1</i>
     <i type="int" name="MIXPRE">     1</i>
     <i type="int" name="MREMOVE">     5</i>
    </separator>
   </separator>
   <separator name="electronic dipolcorrection" >
    <i type="logical" name="LDIPOL"> F  </i>
    <i type="logical" name="LMONO"> F  </i>
    <i type="int" name="IDIPOL">     0</i>
    <i name="EPSILON">      1.00000000</i>
    <v name="DIPOL">   -100.00000000   -100.00000000   -100.00000000</v>
    <i name="EFIELD">      0.00000000</i>
   </separator>
  </separator>
  <separator name="grids" >
   <i type="int" name="NGX">    70</i>
   <i type="int" name="NGY">    70</i>
   <i type="int" name="NGZ">    70</i>
   <i type="int" name="NGXF">   140</i>
   <i type="int" name="NGYF">   140</i>
   <i type="int" name="NGZF">   140</i>
   <i type="logical" name="ADDGRID"> T  </i>
  </separator>
  <separator name="ionic" >
   <i type="int" name="NSW">     0</i>
   <i type="int" name="IBRION">    -1</i>
   <i type="int" name="MDALGO">     0</i>
   <i type="int" name="ISIF">     2</i>
   <i name="PSTRESS">      0.00000000</i>
   <i name="EDIFFG">      0.00000010</i>
   <i type="int" name="NFREE">     0</i>
   <i name="POTIM">      0.50000000</i>
   <i name="SMASS">     -3.00000000</i>
   <i name="SCALEE">      1.00000000</i>
  </separator>
  <separator name="ionic md" >
   <i name="TEBEG">      0.00010000</i>
   <i name="TEEND">      0.00010000</i>
   <i type="int" name="NBLOCK">     1</i>
   <i type="int" name="KBLOCK">     1</i>
   <i type="int" name="NPACO">   256</i>
   <i name="APACO">     10.00000000</i>
  </separator>
  <separator name="symmetry" >
   <i type="int" name="ISYM">     2</i>
   <i name="SYMPREC">      0.00001000</i>
  </separator>
  <separator name="dos" >
   <i type="int" name="LORBIT">     0</i>
   <v name="RWIGS">     -1.00000000     -1.00000000</v>
   <i type="int" name="NEDOS">   301</i>
   <i name="EMIN">     10.00000000</i>
   <i name="EMAX">    -10.00000000</i>
   <i name="EFERMI">      0.00000000</i>
  </separator>
  <separator name="writing" >
   <i type="int" name="NWRITE">     2</i>
   <i type="logical" name="LWAVE"> F  </i>
   <i type="logical" name="LDOWNSAMPLE"> F  </i>
   <i type="logical" name="LCHARG"> F  </i>
   <i type="logical" name="LPARD"> F  </i>
   <i type="logical" name="LVTOT"> F  </i>
   <i type="logical" name="LVHAR"> F  </i>
   <i type="logical" name="LELF"> F  </i>
   <i type="logical" name="LOPTICS"> F  </i>
   <v name="STM">      0.00000000      0.00000000      0.00000000      0.00000000      0.00000000      0.00000000      0.00000000</v>
  </separator>
  <separator name="performance" >
   <i type="int" name="NPAR">    32</i>
   <i type="int" name="NSIM">     4</i>
   <i type="int" name="NBLK">    -1</i>
   <i type="logical" name="LPLANE"> T  </i>
   <i type="logical" name="LSCALAPACK"> T  </i>
   <i type="logical" name="LSCAAWARE"> F  </i>
   <i type="logical" name="LSCALU"> F  </i>
   <i type="logical" name="LASYNC"> F  </i>
   <i type="logical" name="LORBITALREAL"> F  </i>
  </separator>
  <separator name="miscellaneous" >
   <i type="int" name="IDIOT">     3</i>
   <i type="int" name="PHON_NSTRUCT">    -1</i>
   <i type="logical" name="LMUSIC"> F  </i>
   <v name="POMASS">     22.99000000     35.45300000</v>
   <v name="DARWINR">      0.00000000      0.00000000</v>
   <v name="DARWINV">      1.00000000      1.00000000</v>
   <i type="logical" name="LCORR"> T  </i>
  </separator>
  <i type="logical" name="GGA_COMPAT"> T  </i>
  <i type="logical" name="LBERRY"> F  </i>
  <i type="int" name="ICORELEVEL">     0</i>
  <i type="logical" name="LDAU"> F  </i>
  <i type="int" name="I_CONSTRAINED_M">     0</i>
  <separator name="electronic exchange-correlation" >
   <i type="string" name="GGA">PS</i>
   <i type="int" name="VOSKOWN">     0</i>
   <i type="logical" name="LHFCALC"> F  </i>
   <i type="string" name="PRECFOCK"></i>
   <i type="logical" name="LSYMGRAD"> F  </i>
   <i type="logical" name="LHFONE"> F  </i>
   <i type="logical" name="LRHFCALC"> F  </i>
   <i type="logical" name="LTHOMAS"> F  </i>
   <i type="logical" name="LMODELHF"> F  </i>
   <i type="logical" name="LFOCKACE"> F  </i>
   <i name="ENCUT4O">     -1.00000000</i>
   <i type="int" name="EXXOEP">     0</i>
   <i type="int" name="FOURORBIT">     0</i>
   <i name="AEXX">      0.00000000</i>
   <i name="HFALPHA">      0.00000000</i>
   <i name="MCALPHA">      0.00000000</i>
   <i name="ALDAX">      1.00000000</i>
   <i name="AGGAX">      1.00000000</i>
   <i name="ALDAC">      1.00000000</i>
   <i name="AGGAC">      1.00000000</i>
   <i type="int" name="NKREDX">     1</i>
   <i type="int" name="NKREDY">     1</i>
   <i type="int" name="NKREDZ">     1</i>
   <i type="logical" name="SHIFTRED"> F  </i>
   <i type="logical" name="ODDONLY"> F  </i>
   <i type="logical" name="EVENONLY"> F  </i>
   <i type="int" name="LMAXFOCK">     0</i>
   <i type="int" name="NMAXFOCKAE">     0</i>
   <i type="logical" name="LFOCKAEDFT"> F  </i>
   <i name="HFSCREEN">      0.00000000</i>
   <i name="HFSCREENC">      0.00000000</i>
   <i type="int" name="NBANDSGWLOW">     0</i>
  </separator>
  <separator name="vdW DFT" >
   <i type="logical" name="LUSE_VDW"> F  </i>
   <i name="Zab_VDW">     -0.84910000</i>
   <i name="PARAM1">      0.12340000</i>
   <i name="PARAM2">      1.00000000</i>
   <i name="PARAM3">      0.00000000</i>
  </separator>
  <separator name="model GW" >
   <i type="int" name="MODEL_GW">     0</i>
   <i name="MODEL_EPS0">     13.18532537</i>
   <i name="MODEL_ALPHA">      1.00000000</i>
  </separator>
  <separator name="linear response parameters" >
   <i type="logical" name="LEPSILON"> F  </i>
   <i type="logical" name="LRPA"> F  </i>
   <i type="logical" name="LNABLA"> F  </i>
   <i type="logical" name="LVEL"> F  </i>
   <i name="CSHIFT">      0.10000000</i>
   <i name="OMEGAMAX">     -1.00000000</i>
   <i name="DEG_THRESHOLD">      0.00200000</i>
   <i name="RTIME">     -0.10000000</i>
   <i name="WPLASMAI">      0.00000000</i>
   <v name="DFIELD">      0.00000000      0.00000000      0.00000000</v>
   <v name="WPLASMA">      0.00000000      0.00000000      0.00000000      0.00000000      0.00000000      0.00000000      0.00000000      0.00000000      0.00000000</v>
  </separator>
  <separator name="orbital magnetization" >
   <i type="logical" name="NUCIND"> F  </i>
   <v name="MAGPOS">      0.00000000      0.00000000      0.00000000</v>
   <i type="logical" name="LNICSALL"> T  </i>
   <i type="logical" name="ORBITALMAG"> F  </i>
   <i type="logical" name="LMAGBLOCH"> F  </i>
   <i type="logical" name="LCHIMAG"> F  </i>
   <i type="logical" name="LGAUGE"> T  </i>
   <i type="int" name="MAGATOM">     0</i>
   <v name="MAGDIPOL">      0.00000000      0.00000000      0.00000000</v>
   <v name="AVECCONST">      0.00000000      0.00000000      0.00000000</v>
  </separator>
  <separator name="response functions" >
   <i type="logical" name="LFINITE_TEMPERATURE"> F  </i>
   <i type="logical" name="LADDER"> F  </i>
   <i type="logical" name="LRPAFORCE"> F  </i>
   <i type="logical" name="LFXC"> F  </i>
   <i type="logical" name="LHARTREE"> T  </i>
   <i type="int" name="IBSE">     0</i>
   <v type="int" name="KPOINT">    -1     0     0     0</v>
   <i type="logical" name="LTCTC"> F  </i>
   <i type="logical" name="LTCTE"> F  </i>
   <i type="logical" name="LTETE"> F  </i>
   <i type="logical" name="LTRIPLET"> F  </i>
   <i type="logical" name="LFXCEPS"> F  </i>
   <i type="logical" name="LFXHEG"> F  </i>
   <i type="int" name="NATURALO">     2</i>
   <i type="logical" name="LHOLEGF"> F  </i>
   <i type="logical" name="L2ORDER"> F  </i>
   <i type="logical" name="LDMP1"> F  </i>
   <i type="logical" name="LMP2LT"> F  </i>
   <i type="logical" name="LSMP2LT"> F  </i>
   <i type="logical" name="LGWLF"> F  </i>
   <i name="ENCUTGW">     -2.00000000</i>
   <i name="ENCUTGWSOFT">     -2.00000000</i>
   <i name="ENCUTLF">     -1.00000000</i>
   <i type="logical" name="LESF_SPLINES"> F  </i>
   <i type="int" name="LMAXMP2">    -1</i>
   <i name="SCISSOR">      0.00000000</i>
   <i type="int" name="NOMEGA">     0</i>
   <i type="int" name="NOMEGAR">     0</i>
   <i type="int" name="NBANDSGW">    -1</i>
   <i type="int" name="NBANDSO">    -1</i>
   <i type="int" name="NBANDSV">    -1</i>
   <i type="int" name="NELMGW">     1</i>
   <i type="int" name="NELMHF">     1</i>
   <i type="int" name="DIM">     3</i>
   <i type="int" name="IESPILON">     4</i>
   <i type="int" name="ANTIRES">     0</i>
   <i name="OMEGAMAX">    -30.00000000</i>
   <i name="OMEGAMIN">    -30.00000000</i>
   <i name="OMEGATL">   -200.00000000</i>
   <i type="int" name="OMEGAGRID">     0</i>
   <i name="CSHIFT">     -0.10000000</i>
   <i type="logical" name="LSELFENERGY"> F  </i>
   <i type="logical" name="LSPECTRAL"> F  </i>
   <i type="logical" name="LSPECTRALGW"> F  </i>
   <i type="logical" name="LSINGLES"> F  </i>
   <i type="logical" name="LFERMIGW"> F  </i>
   <i type="logical" name="ODDONLYGW"> F  </i>
   <i type="logical" name="EVENONLYGW"> F  </i>
   <i type="int" name="NKREDLFX">     1</i>
   <i type="int" name="NKREDLFY">     1</i>
   <i type="int" name="NKREDLFZ">     1</i>
   <i type="int" name="MAXMEM">  2800</i>
   <i type="int" name="TELESCOPE">     0</i>
   <i type="int" name="NTAUPAR">    -1</i>
   <i type="int" name="NOMEGAPAR">    -1</i>
   <i name="DAMP_NEWTON">      0.80000001</i>
   <i name="LAMBDA">      1.00000000</i>
  </separator>
  <separator name="External order field" >
   <i name="OFIELD_KAPPA">      0.00000000</i>
   <v name="OFIELD_K">      0.00000000      0.00000000      0.00000000</v>
   <i name="OFIELD_Q6_NEAR">      0.00000000</i>
   <i name="OFIELD_Q6_FAR">      0.00000000</i>
   <i name="OFIELD_A">      0.00000000</i>
  </separator>
  <separator name="optional k-points parameters" >
   <i type="int" name="KPOINTS_OPT_MODE">     1</i>
   <i type="logical" name="LKPOINTS_OPT"> F  </i>
  </separator>
 </parameters>
 <atominfo>
  <atoms>      64 </atoms>
  <types>       2 </types>
  <array name="atoms" >
   <dimension dim="1">ion</dimension>
   <field type="string">element</field>
   <field type="int">atomtype</field>
   <set>
    <rc><c>Na</c><c>   1</c></rc>
    <rc><c>Na</c><c>   1</c></rc>
    <rc><c>Na</c><c>   1</c></rc>
    <rc><c>Na</c><c>   1</c></rc>
    <rc><c>Na</c><c>   1</c></rc>
    <rc><c>Na</c><c>   1</c></rc>
    <rc><c>Na</c><c>   1</c></rc>
    <rc><c>Na</c><c>   1</c></rc>
    <rc><c>Na</c><c>   1</c></rc>
    <rc><c>Na</c><c>   1</c></rc>
    <rc><c>Na</c><c>   1</c></rc>
    <rc><c>Na</c><c>   1</c></rc>
    <rc><c>Na</c><c>   1</c></rc>
    <rc><c>Na</c><c>   1</c></rc>
    <rc><c>Na</c><c>   1</c></rc>
    <rc><c>Na</c><c>   1</c></rc>
    <rc><c>Na</c><c>   1</c></rc>
    <rc><c>Na</c><c>   1</c></rc>
    <rc><c>Na</c><c>   1</c></rc>
    <rc><c>Na</c><c>   1</c></rc>
    <rc><c>Na</c><c>   1</c></rc>
    <rc><c>Na</c><c>   1</c></rc>
    <rc><c>Na</c><c>   1</c></rc>
    <rc><c>Na</c><c>   1</c></rc>
    <rc><c>Na</c><c>   1</c></rc>
    <rc><c>Na</c><c>   1</c></rc>
    <rc><c>Na</c><c>   1</c></rc>
    <rc><c>Na</c><c>   1</c></rc>
    <rc><c>Na</c><c>   1</c></rc>
    <rc><c>Na</c><c>   1</c></rc>
    <rc><c>Na</c><c>   1</c></rc>
    <rc><c>Na</c><c>   1</c></rc>
    <rc><c>Cl</c><c>   2</c></rc>
    <rc><c>Cl</c><c>   2</c></rc>
    <rc><c>Cl</c><c>   2</c></rc>
    <rc><c>Cl</c><c>   2</c></rc>
    <rc><c>Cl</c><c>   2</c></rc>
    <rc><c>Cl</c><c>   2</c></rc>
    <rc><c>Cl</c><c>   2</c></rc>
    <rc><c>Cl</c><c>   2</c></rc>
    <rc><c>Cl</c><c>   2</c></rc>
    <rc><c>Cl</c><c>   2</c></rc>
    <rc><c>Cl</c><c>   2</c></rc>
    <rc><c>Cl</c><c>   2</c></rc>
    <rc><c>Cl</c><c>   2</c></rc>
    <rc><c>Cl</c><c>   2</c></rc>
    <rc><c>Cl</c><c>   2</c></rc>
    <rc><c>Cl</c><c>   2</c></rc>
    <rc><c>Cl</c><c>   2</c></rc>
    <rc><c>Cl</c><c>   2</c></rc>
    <rc><c>Cl</c><c>   2</c></rc>
    <rc><c>Cl</c><c>   2</c></rc>
    <rc><c>Cl</c><c>   2</c></rc>
    <rc><c>Cl</c><c>   2</c></rc>
    <rc><c>Cl</c><c>   2</c></rc>
    <rc><c>Cl</c><c>   2</c></rc>
    <rc><c>Cl</c><c>   2</c></rc>
    <rc><c>Cl</c><c>   2</c></rc>
    <rc><c>Cl</c><c>   2</c></rc>
    <rc><c>Cl</c><c>   2</c></rc>
    <rc><c>Cl</c><c>   2</c></rc>
    <rc><c>Cl</c><c>   2</c></rc>
    <rc><c>Cl</c><c>   2</c></rc>
    <rc><c>Cl</c><c>   2</c></rc>
   </set>
  </array>
  <array name="atomtypes" >
   <dimension dim="1">type</dimension>
   <field type="int">atomspertype</field>
   <field type="string">element</field>
   <field>mass</field>
   <field>valence</field>
   <field type="string">pseudopotential</field>
   <set>
    <rc><c>  32</c><c>Na</c><c>     22.99000000</c><c>      7.00000000</c><c>  PAW_PBE Na_pv 19Sep2006               </c></rc>
    <rc><c>  32</c><c>Cl</c><c>     35.45300000</c><c>      7.00000000</c><c>  PAW_PBE Cl 06Sep2000                  </c></rc>
   </set>
  </array>
 </atominfo>
 <structure name="initialpos" >
  <crystal>
   <varray name="basis" >
    <v>      11.20400236       0.00000000       0.00000000 </v>
    <v>       0.00000000      11.20400236       0.00000000 </v>
    <v>       0.00000000       0.00000000      11.20400236 </v>
   </varray>
   <i name="volume">   1406.43470641 </i>
   <varray name="rec_basis" >
    <v>       0.08925382       0.00000000       0.00000000 </v>
    <v>       0.00000000       0.08925382       0.00000000 </v>
    <v>       0.00000000       0.00000000       0.08925382 </v>
   </varray>
  </crystal>
  <varray name="positions" >
   <v>       0.99732239       0.00000000       0.00000000 </v>
   <v>       0.25000000       0.25000000       0.00000000 </v>
   <v>       0.25000000       0.00000000       0.25000000 </v>
   <v>       0.00000000       0.25000000       0.25000000 </v>
   <v>       0.00000000       0.00000000       0.50000000 </v>
   <v>       0.25000000       0.25000000       0.50000000 </v>
   <v>       0.25000000       0.00000000       0.75000000 </v>
   <v>       0.00000000       0.25000000       0.75000000 </v>
   <v>       0.00000000       0.50000000       0.00000000 </v>
   <v>       0.25000000       0.75000000       0.00000000 </v>
   <v>       0.25000000       0.50000000       0.25000000 </v>
   <v>       0.00000000       0.75000000       0.25000000 </v>
   <v>       0.00000000       0.50000000       0.50000000 </v>
   <v>       0.25000000       0.75000000       0.50000000 </v>
   <v>       0.25000000       0.50000000       0.75000000 </v>
   <v>       0.00000000       0.75000000       0.75000000 </v>
   <v>       0.50000000       0.00000000       0.00000000 </v>
   <v>       0.75000000       0.25000000       0.00000000 </v>
   <v>       0.75000000       0.00000000       0.25000000 </v>
   <v>       0.50000000       0.25000000       0.25000000 </v>
   <v>       0.50000000       0.00000000       0.50000000 </v>
   <v>       0.75000000       0.25000000       0.50000000 </v>
   <v>       0.75000000       0.00000000       0.75000000 </v>
   <v>       0.50000000       0.25000000       0.75000000 </v>
   <v>       0.50000000       0.50000000       0.00000000 </v>
   <v>       0.75000000       0.75000000       0.00000000 </v>
   <v>       0.75000000       0.50000000       0.25000000 </v>
   <v>       0.50000000       0.75000000       0.25000000 </v>
   <v>       0.50000000       0.50000000       0.50000000 </v>
   <v>       0.75000000       0.75000000       0.50000000 </v>
   <v>       0.75000000       0.50000000       0.75000000 </v>
   <v>       0.50000000       0.75000000       0.75000000 </v>
   <v>       0.25000000       0.25000000       0.25000000 </v>
   <v>       0.00000000       0.00000000       0.25000000 </v>
   <v>       0.00000000       0.25000000       0.00000000 </v>
   <v>       0.24732239       0.00000000       0.00000000 </v>
   <v>       0.25000000       0.25000000       0.75000000 </v>
   <v>       0.00000000       0.00000000       0.75000000 </v>
   <v>       0.00000000       0.25000000       0.50000000 </v>
   <v>       0.25000000       0.00000000       0.50000000 </v>
   <v>       0.25000000       0.75000000       0.25000000 </v>
   <v>       0.00000000       0.50000000       0.25000000 </v>
   <v>       0.00000000       0.75000000       0.00000000 </v>
   <v>       0.25000000       0.50000000       0.00000000 </v>
   <v>       0.25000000       0.75000000       0.75000000 </v>
   <v>       0.00000000       0.50000000       0.75000000 </v>
   <v>       0.00000000       0.75000000       0.50000000 </v>
   <v>       0.25000000       0.50000000       0.50000000 </v>
   <v>       0.75000000       0.25000000       0.25000000 </v>
   <v>       0.50000000       0.00000000       0.25000000 </v>
   <v>       0.50000000       0.25000000       0.00000000 </v>
   <v>       0.75000000       0.00000000       0.00000000 </v>
   <v>       0.75000000       0.25000000       0.75000000 </v>
   <v>       0.50000000       0.00000000       0.75000000 </v>
   <v>       0.50000000       0.25000000       0.50000000 </v>
   <v>       0.75000000       0.00000000       0.50000000 </v>
   <v>       0.75000000       0.75000000       0.25000000 </v>
   <v>       0.50000000       0.50000000       0.25000000 </v>
   <v>       0.50000000       0.75000000       0.00000000 </v>
   <v>       0.75000000       0.50000000       0.00000000 </v>
   <v>       0.75000000       0.75000000       0.75000000 </v>
   <v>       0.50000000       0.50000000       0.75000000 </v>
   <v>       0.50000000       0.75000000       0.50000000 </v>
   <v>       0.75000000       0.50000000       0.50000000 </v>
  </varray>
 </structure>
 <calculation>
  <scstep>
   <time name="dav">    7.47    7.51</time>
   <time name="total">    7.55    7.59</time>
   <energy>
    <i name="alphaZ">    751.52672365 </i>
    <i name="ewald"> -22871.40103513 </i>
    <i name="hartreedc">  -8992.19258659 </i>
    <i name="XCdc">   1456.53395866 </i>
    <i name="pawpsdc">  26466.43774078 </i>
    <i name="pawaedc"> -29286.08056155 </i>
    <i name="eentropy">     -0.00295959 </i>
    <i name="bandstr">   -740.20857283 </i>
    <i name="atom">  37532.17946992 </i>
    <i name="e_fr_energy">   4316.79217733 </i>
    <i name="e_wo_entrp">   4316.79513692 </i>
    <i name="e_0_energy">   4316.79365712 </i>
   </energy>
  </scstep>
  <scstep>
   <time name="dav">    8.14    8.18</time>
   <time name="total">    8.14    8.18</time>
   <energy>
    <i name="e_fr_energy">    363.41328479 </i>
    <i name="e_wo_entrp">    363.41328479 </i>
    <i name="e_0_energy">    363.41328479 </i>
   </energy>
  </scstep>
  <scstep>
   <time name="dav">    8.82    8.86</time>
   <time name="total">    8.82    8.86</time>
   <energy>
    <i name="e_fr_energy">   -206.22738788 </i>
    <i name="e_wo_entrp">   -206.22738788 </i>
    <i name="e_0_energy">   -206.22738788 </i>
   </energy>
  </scstep>
  <scstep>
   <time name="dav">    8.71    8.76</time>
   <time name="total">    8.71    8.76</time>
   <energy>
    <i name="e_fr_energy">   -228.19428481 </i>
    <i name="e_wo_entrp">   -228.19428481 </i>
    <i name="e_0_energy">   -228.19428481 </i>
   </energy>
  </scstep>
  <scstep>
   <time name="dav">    8.93    8.97</time>
   <time name="total">    9.20    9.24</time>
   <energy>
    <i name="e_fr_energy">   -229.00339645 </i>
    <i name="e_wo_entrp">   -229.00339645 </i>
    <i name="e_0_energy">   -229.00339645 </i>
   </energy>
  </scstep>
  <scstep>
   <time name="dav">    8.93    8.98</time>
   <time name="total">    9.27    9.32</time>
   <energy>
    <i name="e_fr_energy">   -224.13975967 </i>
    <i name="e_wo_entrp">   -224.13975967 </i>
    <i name="e_0_energy">   -224.13975967 </i>
   </energy>
  </scstep>
  <scstep>
   <time name="dav">    9.59    9.64</time>
   <time name="total">    9.93    9.98</time>
   <energy>
    <i name="e_fr_energy">   -223.77797609 </i>
    <i name="e_wo_entrp">   -223.77797609 </i>
    <i name="e_0_energy">   -223.77797609 </i>
   </energy>
  </scstep>
  <scstep>
   <time name="dav">    8.48    8.52</time>
   <time name="total">    8.82    8.87</time>
   <energy>
    <i name="e_fr_energy">   -223.90332979 </i>
    <i name="e_wo_entrp">   -223.90332979 </i>
    <i name="e_0_energy">   -223.90332979 </i>
   </energy>
  </scstep>
  <scstep>
   <time name="dav">    8.95    9.00</time>
   <time name="total">    9.29    9.34</time>
   <energy>
    <i name="e_fr_energy">   -223.89767945 </i>
    <i name="e_wo_entrp">   -223.89767945 </i>
    <i name="e_0_energy">   -223.89767945 </i>
   </energy>
  </scstep>
  <scstep>
   <time name="dav">    8.41    8.45</time>
   <time name="total">    8.75    8.79</time>
   <energy>
    <i name="e_fr_energy">   -223.90195067 </i>
    <i name="e_wo_entrp">   -223.90195067 </i>
    <i name="e_0_energy">   -223.90195067 </i>
   </energy>
  </scstep>
  <scstep>
   <time name="dav">    9.22    9.27</time>
   <time name="total">    9.56    9.61</time>
   <energy>
    <i name="e_fr_energy">   -223.90120621 </i>
    <i name="e_wo_entrp">   -223.90120621 </i>
    <i name="e_0_energy">   -223.90120621 </i>
   </energy>
  </scstep>
  <scstep>
   <time name="dav">    9.27    9.32</time>
   <time name="total">    9.61    9.66</time>
   <energy>
    <i name="e_fr_energy">   -223.90116670 </i>
    <i name="e_wo_entrp">   -223.90116670 </i>
    <i name="e_0_energy">   -223.90116670 </i>
   </energy>
  </scstep>
  <scstep>
   <time name="dav">    8.48    8.52</time>
   <time name="total">    8.82    8.87</time>
   <energy>
    <i name="e_fr_energy">   -223.90116492 </i>
    <i name="e_wo_entrp">   -223.90116492 </i>
    <i name="e_0_energy">   -223.90116492 </i>
   </energy>
  </scstep>
  <scstep>
   <time name="dav">    8.82    8.87</time>
   <time name="total">    9.15    9.21</time>
   <energy>
    <i name="e_fr_energy">   -223.90116700 </i>
    <i name="e_wo_entrp">   -223.90116700 </i>
    <i name="e_0_energy">   -223.90116700 </i>
   </energy>
  </scstep>
  <scstep>
   <time name="dav">    8.62    8.67</time>
   <time name="total">    8.96    9.01</time>
   <energy>
    <i name="e_fr_energy">   -223.90116821 </i>
    <i name="e_wo_entrp">   -223.90116821 </i>
    <i name="e_0_energy">   -223.90116821 </i>
   </energy>
  </scstep>
  <scstep>
   <time name="dav">    8.78    8.83</time>
   <time name="total">    9.12    9.17</time>
   <energy>
    <i name="e_fr_energy">   -223.90116864 </i>
    <i name="e_wo_entrp">   -223.90116864 </i>
    <i name="e_0_energy">   -223.90116864 </i>
   </energy>
  </scstep>
  <scstep>
   <time name="dav">    6.31    6.34</time>
   <time name="total">    6.64    6.68</time>
   <energy>
    <i name="e_fr_energy">   -223.90116869 </i>
    <i name="e_wo_entrp">   -223.90116869 </i>
    <i name="e_0_energy">   -223.90116869 </i>
   </energy>
  </scstep>
  <scstep>
   <time name="dav">    6.63    6.67</time>
   <time name="total">    6.97    7.01</time>
   <energy>
    <i name="e_fr_energy">   -223.90116881 </i>
    <i name="e_wo_entrp">   -223.90116881 </i>
    <i name="e_0_energy">   -223.90116881 </i>
   </energy>
  </scstep>
  <scstep>
   <time name="dav">    5.63    5.66</time>
   <time name="total">    5.70    5.73</time>
   <energy>
    <i name="alphaZ">    751.52672365 </i>
    <i name="ewald"> -22871.40103513 </i>
    <i name="hartreedc">  -9078.10344925 </i>
    <i name="XCdc">   1472.51297709 </i>
    <i name="pawpsdc">  29498.14689484 </i>
    <i name="pawaedc"> -32317.51074678 </i>
    <i name="eentropy">     -0.00000000 </i>
    <i name="bandstr">  -5211.25200314 </i>
    <i name="atom">  37532.17946992 </i>
    <i name="e_fr_energy">   -223.90116880 </i>
    <i name="e_wo_entrp">   -223.90116880 </i>
    <i name="e_0_energy">   -223.90116880 </i>
   </energy>
  </scstep>
  <structure>
   <crystal>
    <varray name="basis" >
     <v>      11.20400236       0.00000000       0.00000000 </v>
     <v>       0.00000000      11.20400236       0.00000000 </v>
     <v>       0.00000000       0.00000000      11.20400236 </v>
    </varray>
    <i name="volume">   1406.43470641 </i>
    <varray name="rec_basis" >
     <v>       0.08925382       0.00000000       0.00000000 </v>
     <v>       0.00000000       0.08925382       0.00000000 </v>
     <v>       0.00000000       0.00000000       0.08925382 </v>
    </varray>
   </crystal>
   <varray name="positions" >
    <v>       0.99732239       0.00000000       0.00000000 </v>
    <v>       0.25000000       0.25000000       0.00000000 </v>
    <v>       0.25000000       0.00000000       0.25000000 </v>
    <v>       0.00000000       0.25000000       0.25000000 </v>
    <v>       0.00000000       0.00000000       0.50000000 </v>
    <v>       0.25000000       0.25000000       0.50000000 </v>
    <v>       0.25000000       0.00000000       0.75000000 </v>
    <v>       0.00000000       0.25000000       0.75000000 </v>
    <v>       0.00000000       0.50000000       0.00000000 </v>
    <v>       0.25000000       0.75000000       0.00000000 </v>
    <v>       0.25000000       0.50000000       0.25000000 </v>
    <v>       0.00000000       0.75000000       0.25000000 </v>
    <v>       0.00000000       0.50000000       0.50000000 </v>
    <v>       0.25000000       0.75000000       0.50000000 </v>
    <v>       0.25000000       0.50000000       0.75000000 </v>
    <v>       0.00000000       0.75000000       0.75000000 </v>
    <v>       0.50000000       0.00000000       0.00000000 </v>
    <v>       0.75000000       0.25000000       0.00000000 </v>
    <v>       0.75000000       0.00000000       0.25000000 </v>
    <v>       0.50000000       0.25000000       0.25000000 </v>
    <v>       0.50000000       0.00000000       0.50000000 </v>
    <v>       0.75000000       0.25000000       0.50000000 </v>
    <v>       0.75000000       0.00000000       0.75000000 </v>
    <v>       0.50000000       0.25000000       0.75000000 </v>
    <v>       0.50000000       0.50000000       0.00000000 </v>
    <v>       0.75000000       0.75000000       0.00000000 </v>
    <v>       0.75000000       0.50000000       0.25000000 </v>
    <v>       0.50000000       0.75000000       0.25000000 </v>
    <v>       0.50000000       0.50000000       0.50000000 </v>
    <v>       0.75000000       0.75000000       0.50000000 </v>
    <v>       0.75000000       0.50000000       0.75000000 </v>
    <v>       0.50000000       0.75000000       0.75000000 </v>
    <v>       0.25000000       0.25000000       0.25000000 </v>
    <v>       0.00000000       0.00000000       0.25000000 </v>
    <v>       0.00000000       0.25000000       0.00000000 </v>
    <v>       0.24732239       0.00000000       0.00000000 </v>
    <v>       0.25000000       0.25000000       0.75000000 </v>
    <v>       0.00000000       0.00000000       0.75000000 </v>
    <v>       0.00000000       0.25000000       0.50000000 </v>
    <v>       0.25000000       0.00000000       0.50000000 </v>
    <v>       0.25000000       0.75000000       0.25000000 </v>
    <v>       0.00000000       0.50000000       0.25000000 </v>
    <v>       0.00000000       0.75000000       0.00000000 </v>
    <v>       0.25000000       0.50000000       0.00000000 </v>
    <v>       0.25000000       0.75000000       0.75000000 </v>
    <v>       0.00000000       0.50000000       0.75000000 </v>
    <v>       0.00000000       0.75000000       0.50000000 </v>
    <v>       0.25000000       0.50000000       0.50000000 </v>
    <v>       0.75000000       0.25000000       0.25000000 </v>
    <v>       0.50000000       0.00000000       0.25000000 </v>
    <v>       0.50000000       0.25000000       0.00000000 </v>
    <v>       0.75000000       0.00000000       0.00000000 </v>
    <v>       0.75000000       0.25000000       0.75000000 </v>
    <v>       0.50000000       0.00000000       0.75000000 </v>
    <v>       0.50000000       0.25000000       0.50000000 </v>
    <v>       0.75000000       0.00000000       0.50000000 </v>
    <v>       0.75000000       0.75000000       0.25000000 </v>
    <v>       0.50000000       0.50000000       0.25000000 </v>
    <v>       0.50000000       0.75000000       0.00000000 </v>
    <v>       0.75000000       0.50000000       0.00000000 </v>
    <v>       0.75000000       0.75000000       0.75000000 </v>
    <v>       0.50000000       0.50000000       0.75000000 </v>
    <v>       0.50000000       0.75000000       0.50000000 </v>
    <v>       0.75000000       0.50000000       0.50000000 </v>
   </varray>
  </structure>
  <varray name="forces" >
   <v>       0.04669374       0.00000000       0.00000000 </v>
   <v>      -0.00652575      -0.00590064       0.00000000 </v>
   <v>      -0.00652575       0.00000000      -0.00590064 </v>
   <v>       0.00187731      -0.00132096      -0.00132096 </v>
   <v>      -0.00011701       0.00000000       0.00000000 </v>
   <v>      -0.00058902       0.00007175       0.00000000 </v>
   <v>      -0.00652575       0.00000000       0.00590064 </v>
   <v>       0.00187731      -0.00132096       0.00132096 </v>
   <v>      -0.00011701       0.00000000       0.00000000 </v>
   <v>      -0.00652575       0.00590064       0.00000000 </v>
   <v>      -0.00058902       0.00000000       0.00007175 </v>
   <v>       0.00187731       0.00132096      -0.00132096 </v>
   <v>       0.00044562       0.00000000       0.00000000 </v>
   <v>      -0.00058902      -0.00007175       0.00000000 </v>
   <v>      -0.00058902       0.00000000      -0.00007175 </v>
   <v>       0.00187731       0.00132096       0.00132096 </v>
   <v>      -0.02511876       0.00000000       0.00000000 </v>
   <v>       0.00132486       0.00592325       0.00000000 </v>
   <v>       0.00132486       0.00000000       0.00592325 </v>
   <v>      -0.00093282       0.00129915       0.00129915 </v>
   <v>      -0.00046642       0.00000000       0.00000000 </v>
   <v>       0.00070044      -0.00007999       0.00000000 </v>
   <v>       0.00132486       0.00000000      -0.00592325 </v>
   <v>      -0.00093282       0.00129915      -0.00129915 </v>
   <v>      -0.00046642       0.00000000       0.00000000 </v>
   <v>       0.00132486      -0.00592325       0.00000000 </v>
   <v>       0.00070044       0.00000000      -0.00007999 </v>
   <v>      -0.00093282      -0.00129915       0.00129915 </v>
   <v>      -0.00044058       0.00000000       0.00000000 </v>
   <v>       0.00070044       0.00007999       0.00000000 </v>
   <v>       0.00070044       0.00000000       0.00007999 </v>
   <v>      -0.00093282      -0.00129915      -0.00129915 </v>
   <v>       0.00256773       0.00125783       0.00125783 </v>
   <v>      -0.00890935       0.00000000       0.00575115 </v>
   <v>      -0.00890935       0.00575115       0.00000000 </v>
   <v>       0.05583476       0.00000000       0.00000000 </v>
   <v>       0.00256773       0.00125783      -0.00125783 </v>
   <v>      -0.00890935       0.00000000      -0.00575115 </v>
   <v>      -0.00054349       0.00058562       0.00000000 </v>
   <v>       0.00139812       0.00000000       0.00000000 </v>
   <v>       0.00256773      -0.00125783       0.00125783 </v>
   <v>      -0.00054349       0.00000000       0.00058562 </v>
   <v>      -0.00890935      -0.00575115       0.00000000 </v>
   <v>       0.00139812       0.00000000       0.00000000 </v>
   <v>       0.00256773      -0.00125783      -0.00125783 </v>
   <v>      -0.00054349       0.00000000      -0.00058562 </v>
   <v>      -0.00054349      -0.00058562       0.00000000 </v>
   <v>       0.00051899       0.00000000       0.00000000 </v>
   <v>      -0.00132158      -0.00130258      -0.00130258 </v>
   <v>      -0.00103475       0.00000000      -0.00576196 </v>
   <v>      -0.00103475      -0.00576196       0.00000000 </v>
   <v>      -0.02405999       0.00000000       0.00000000 </v>
   <v>      -0.00132158      -0.00130258       0.00130258 </v>
   <v>      -0.00103475       0.00000000       0.00576196 </v>
   <v>       0.00070207      -0.00057030       0.00000000 </v>
   <v>      -0.00212338       0.00000000       0.00000000 </v>
   <v>      -0.00132158       0.00130258      -0.00130258 </v>
   <v>       0.00070207       0.00000000      -0.00057030 </v>
   <v>      -0.00103475       0.00576196       0.00000000 </v>
   <v>      -0.00212338       0.00000000       0.00000000 </v>
   <v>      -0.00132158       0.00130258       0.00130258 </v>
   <v>       0.00070207       0.00000000       0.00057030 </v>
   <v>       0.00070207       0.00057030       0.00000000 </v>
   <v>      -0.00051901       0.00000000       0.00000000 </v>
  </varray>
  <varray name="stress" >
   <v>      -0.36977989       0.00000000       0.00000000 </v>
   <v>       0.00000000      -0.38106792       0.00000000 </v>
   <v>       0.00000000       0.00000000      -0.38106792 </v>
  </varray>
  <energy>
   <i name="e_fr_energy">   -223.90116880 </i>
   <i name="e_wo_entrp">   -223.90116880 </i>
   <i name="e_0_energy">   -223.90116880 </i>
  </energy>
  <time name="totalsc">  174.97  175.93</time>
  <eigenvalues>
   <array>
    <dimension dim="1">band</dimension>
    <dimension dim="2">kpoint</dimension>
    <dimension dim="3">spin</dimension>
    <field>eigene</field>
    <field>occ</field>
    <set>
     <set comment="spin 1">
      <set comment="kpoint 1">
       <r>  -21.3092    1.0000 </r>
       <r>  -21.3092    1.0000 </r>
       <r>  -21.3091    1.0000 </r>
       <r>  -21.3045    1.0000 </r>
       <r>  -21.3010    1.0000 </r>
       <r>  -21.3000    1.0000 </r>
       <r>  -21.3000    1.0000 </r>
       <r>  -21.2945    1.0000 </r>
       <r>  -21.2945    1.0000 </r>
       <r>  -21.2945    1.0000 </r>
       <r>  -21.2943    1.0000 </r>
       <r>  -21.2937    1.0000 </r>
       <r>  -21.2936    1.0000 </r>
       <r>  -21.2933    1.0000 </r>
       <r>  -21.2933    1.0000 </r>
       <r>  -21.2928    1.0000 </r>
       <r>  -21.2923    1.0000 </r>
       <r>  -21.2921    1.0000 </r>
       <r>  -21.2921    1.0000 </r>
       <r>  -21.2900    1.0000 </r>
       <r>  -21.2900    1.0000 </r>
       <r>  -21.2882    1.0000 </r>
       <r>  -21.2877    1.0000 </r>
       <r>  -21.2877    1.0000 </r>
       <r>  -21.2872    1.0000 </r>
       <r>  -21.2869    1.0000 </r>
       <r>  -21.2863    1.0000 </r>
       <r>  -21.2861    1.0000 </r>
       <r>  -21.2861    1.0000 </r>
       <r>  -21.2855    1.0000 </r>
       <r>  -21.2848    1.0000 </r>
       <r>  -21.2848    1.0000 </r>
       <r>  -21.2837    1.0000 </r>
       <r>  -21.2836    1.0000 </r>
       <r>  -21.2834    1.0000 </r>
       <r>  -21.2834    1.0000 </r>
       <r>  -21.2834    1.0000 </r>
       <r>  -21.2831    1.0000 </r>
       <r>  -21.2820    1.0000 </r>
       <r>  -21.2820    1.0000 </r>
       <r>  -21.2820    1.0000 </r>
       <r>  -21.2818    1.0000 </r>
       <r>  -21.2818    1.0000 </r>
       <r>  -21.2816    1.0000 </r>
       <r>  -21.2816    1.0000 </r>
       <r>  -21.2813    1.0000 </r>
       <r>  -21.2812    1.0000 </r>
       <r>  -21.2806    1.0000 </r>
       <r>  -21.2806    1.0000 </r>
       <r>  -21.2803    1.0000 </r>
       <r>  -21.2798    1.0000 </r>
       <r>  -21.2798    1.0000 </r>
       <r>  -21.2792    1.0000 </r>
       <r>  -21.2787    1.0000 </r>
       <r>  -21.2783    1.0000 </r>
       <r>  -21.2773    1.0000 </r>
       <r>  -21.2773    1.0000 </r>
       <r>  -21.2769    1.0000 </r>
       <r>  -21.2769    1.0000 </r>
       <r>  -21.2768    1.0000 </r>
       <r>  -21.2761    1.0000 </r>
       <r>  -21.2761    1.0000 </r>
       <r>  -21.2760    1.0000 </r>
       <r>  -21.2752    1.0000 </r>
       <r>  -21.2752    1.0000 </r>
       <r>  -21.2752    1.0000 </r>
       <r>  -21.2751    1.0000 </r>
       <r>  -21.2749    1.0000 </r>
       <r>  -21.2749    1.0000 </r>
       <r>  -21.2749    1.0000 </r>
       <r>  -21.2746    1.0000 </r>
       <r>  -21.2730    1.0000 </r>
       <r>  -21.2730    1.0000 </r>
       <r>  -21.2722    1.0000 </r>
       <r>  -21.2722    1.0000 </r>
       <r>  -21.2715    1.0000 </r>
       <r>  -21.2715    1.0000 </r>
       <r>  -21.2715    1.0000 </r>
       <r>  -21.2713    1.0000 </r>
       <r>  -21.2713    1.0000 </r>
       <r>  -21.2712    1.0000 </r>
       <r>  -21.2709    1.0000 </r>
       <r>  -21.2707    1.0000 </r>
       <r>  -21.2707    1.0000 </r>
       <r>  -21.2706    1.0000 </r>
       <r>  -21.2699    1.0000 </r>
       <r>  -21.2694    1.0000 </r>
       <r>  -21.2694    1.0000 </r>
       <r>  -21.2688    1.0000 </r>
       <r>  -21.2678    1.0000 </r>
       <r>  -21.2676    1.0000 </r>
       <r>  -21.2676    1.0000 </r>
       <r>  -21.2674    1.0000 </r>
       <r>  -21.2561    1.0000 </r>
       <r>  -21.2561    1.0000 </r>
       <r>  -21.2560    1.0000 </r>
       <r>  -13.3581    1.0000 </r>
       <r>  -13.1428    1.0000 </r>
       <r>  -13.1374    1.0000 </r>
       <r>  -13.1374    1.0000 </r>
       <r>  -13.1374    1.0000 </r>
       <r>  -13.1372    1.0000 </r>
       <r>  -13.1333    1.0000 </r>
       <r>  -13.0215    1.0000 </r>
       <r>  -13.0146    1.0000 </r>
       <r>  -13.0146    1.0000 </r>
       <r>  -13.0115    1.0000 </r>
       <r>  -13.0114    1.0000 </r>
       <r>  -13.0113    1.0000 </r>
       <r>  -13.0112    1.0000 </r>
       <r>  -13.0112    1.0000 </r>
       <r>  -13.0111    1.0000 </r>
       <r>  -13.0086    1.0000 </r>
       <r>  -13.0086    1.0000 </r>
       <r>  -13.0042    1.0000 </r>
       <r>  -12.9897    1.0000 </r>
       <r>  -12.9891    1.0000 </r>
       <r>  -12.9891    1.0000 </r>
       <r>  -12.9885    1.0000 </r>
       <r>  -12.9416    1.0000 </r>
       <r>  -12.9412    1.0000 </r>
       <r>  -12.9401    1.0000 </r>
       <r>  -12.9244    1.0000 </r>
       <r>  -12.9230    1.0000 </r>
       <r>  -12.9213    1.0000 </r>
       <r>  -12.9213    1.0000 </r>
       <r>  -12.9187    1.0000 </r>
       <r>  -12.9148    1.0000 </r>
       <r>   -2.7000    1.0000 </r>
       <r>   -2.7000    1.0000 </r>
       <r>   -2.7000    1.0000 </r>
       <r>   -2.7000    1.0000 </r>
       <r>   -2.4240    1.0000 </r>
       <r>   -2.4240    1.0000 </r>
       <r>   -2.4240    1.0000 </r>
       <r>   -2.2073    1.0000 </r>
       <r>   -2.2073    1.0000 </r>
       <r>   -2.2058    1.0000 </r>
       <r>   -2.2048    1.0000 </r>
       <r>   -2.2046    1.0000 </r>
       <r>   -2.2044    1.0000 </r>
       <r>   -2.2044    1.0000 </r>
       <r>   -2.2042    1.0000 </r>
       <r>   -2.2038    1.0000 </r>
       <r>   -2.2025    1.0000 </r>
       <r>   -2.2011    1.0000 </r>
       <r>   -2.2011    1.0000 </r>
       <r>   -1.9280    1.0000 </r>
       <r>   -1.9280    1.0000 </r>
       <r>   -1.9253    1.0000 </r>
       <r>   -1.9253    1.0000 </r>
       <r>   -1.9247    1.0000 </r>
       <r>   -1.9247    1.0000 </r>
       <r>   -1.9247    1.0000 </r>
       <r>   -1.9246    1.0000 </r>
       <r>   -1.9244    1.0000 </r>
       <r>   -1.9244    1.0000 </r>
       <r>   -1.9210    1.0000 </r>
       <r>   -1.9210    1.0000 </r>
       <r>   -1.7976    1.0000 </r>
       <r>   -1.7966    1.0000 </r>
       <r>   -1.7966    1.0000 </r>
       <r>   -1.7966    1.0000 </r>
       <r>   -1.7966    1.0000 </r>
       <r>   -1.7956    1.0000 </r>
       <r>   -1.5080    1.0000 </r>
       <r>   -1.5080    1.0000 </r>
       <r>   -1.5061    1.0000 </r>
       <r>   -1.5061    1.0000 </r>
       <r>   -1.5060    1.0000 </r>
       <r>   -1.5056    1.0000 </r>
       <r>   -1.5054    1.0000 </r>
       <r>   -1.5053    1.0000 </r>
       <r>   -1.5052    1.0000 </r>
       <r>   -1.5048    1.0000 </r>
       <r>   -1.5023    1.0000 </r>
       <r>   -1.5023    1.0000 </r>
       <r>   -1.4648    1.0000 </r>
       <r>   -1.4637    1.0000 </r>
       <r>   -1.4623    1.0000 </r>
       <r>   -1.4623    1.0000 </r>
       <r>   -1.4622    1.0000 </r>
       <r>   -1.4605    1.0000 </r>
       <r>   -1.2948    1.0000 </r>
       <r>   -1.2948    1.0000 </r>
       <r>   -1.2946    1.0000 </r>
       <r>   -1.2946    1.0000 </r>
       <r>   -1.2946    1.0000 </r>
       <r>   -1.2946    1.0000 </r>
       <r>   -1.0043    1.0000 </r>
       <r>   -1.0043    1.0000 </r>
       <r>   -1.0029    1.0000 </r>
       <r>   -1.0016    1.0000 </r>
       <r>   -1.0016    1.0000 </r>
       <r>   -1.0011    1.0000 </r>
       <r>   -1.0011    1.0000 </r>
       <r>   -1.0008    1.0000 </r>
       <r>   -1.0007    1.0000 </r>
       <r>   -1.0007    1.0000 </r>
       <r>   -0.9965    1.0000 </r>
       <r>   -0.9965    1.0000 </r>
       <r>   -0.9526    1.0000 </r>
       <r>   -0.9526    1.0000 </r>
       <r>   -0.9523    1.0000 </r>
       <r>   -0.9512    1.0000 </r>
       <r>   -0.9501    1.0000 </r>
       <r>   -0.9481    1.0000 </r>
       <r>   -0.9478    1.0000 </r>
       <r>   -0.9478    1.0000 </r>
       <r>   -0.9474    1.0000 </r>
       <r>   -0.9472    1.0000 </r>
       <r>   -0.9472    1.0000 </r>
       <r>   -0.9467    1.0000 </r>
       <r>   -0.9458    1.0000 </r>
       <r>   -0.9457    1.0000 </r>
       <r>   -0.9457    1.0000 </r>
       <r>   -0.9424    1.0000 </r>
       <r>   -0.9419    1.0000 </r>
       <r>   -0.9413    1.0000 </r>
       <r>   -0.9406    1.0000 </r>
       <r>   -0.9406    1.0000 </r>
       <r>   -0.6648    1.0000 </r>
       <r>   -0.6648    1.0000 </r>
       <r>   -0.6648    1.0000 </r>
       <r>    4.3403    0.0000 </r>
       <r>    6.3611    0.0000 </r>
       <r>    6.3672    0.0000 </r>
       <r>    6.3679    0.0000 </r>
       <r>    6.3679    0.0000 </r>
       <r>    6.3682    0.0000 </r>
       <r>    6.3756    0.0000 </r>
       <r>    6.4446    0.0000 </r>
       <r>    6.4447    0.0000 </r>
       <r>    6.4448    0.0000 </r>
       <r>    6.4448    0.0000 </r>
       <r>    6.8279    0.0000 </r>
       <r>    6.8280    0.0000 </r>
       <r>    6.8281    0.0000 </r>
       <r>    7.2067    0.0000 </r>
       <r>    7.2067    0.0000 </r>
       <r>    7.2069    0.0000 </r>
       <r>    7.4550    0.0000 </r>
       <r>    7.4593    0.0000 </r>
       <r>    7.4593    0.0000 </r>
       <r>    7.4614    0.0000 </r>
       <r>    7.4625    0.0000 </r>
       <r>    7.4625    0.0000 </r>
       <r>    7.4639    0.0000 </r>
       <r>    7.4642    0.0000 </r>
       <r>    7.4645    0.0000 </r>
       <r>    7.4708    0.0000 </r>
       <r>    7.4708    0.0000 </r>
       <r>    7.4757    0.0000 </r>
       <r>    8.1630    0.0000 </r>
       <r>    8.1666    0.0000 </r>
       <r>    8.1681    0.0000 </r>
       <r>    8.1681    0.0000 </r>
       <r>    8.1703    0.0000 </r>
       <r>    8.1740    0.0000 </r>
       <r>    8.2770    0.0000 </r>
       <r>    8.2794    0.0000 </r>
       <r>    8.2796    0.0000 </r>
       <r>    8.2796    0.0000 </r>
       <r>    8.2796    0.0000 </r>
       <r>    8.2823    0.0000 </r>
       <r>    8.8925    0.0000 </r>
       <r>    8.8926    0.0000 </r>
       <r>    8.8973    0.0000 </r>
       <r>    8.8976    0.0000 </r>
       <r>    8.8985    0.0000 </r>
       <r>    8.8992    0.0000 </r>
       <r>    8.9007    0.0000 </r>
       <r>    8.9010    0.0000 </r>
       <r>    8.9012    0.0000 </r>
       <r>    8.9038    0.0000 </r>
       <r>    8.9043    0.0000 </r>
       <r>    8.9052    0.0000 </r>
       <r>    8.9125    0.0000 </r>
       <r>    8.9133    0.0000 </r>
       <r>    8.9141    0.0000 </r>
       <r>    8.9149    0.0000 </r>
       <r>    8.9151    0.0000 </r>
       <r>    8.9159    0.0000 </r>
       <r>    8.9166    0.0000 </r>
       <r>    8.9170    0.0000 </r>
       <r>    8.9179    0.0000 </r>
       <r>    8.9260    0.0000 </r>
       <r>    8.9343    0.0000 </r>
      </set>
      <set comment="kpoint 2">
       <r>  -21.3085    1.0000 </r>
       <r>  -21.3085    1.0000 </r>
       <r>  -21.3083    1.0000 </r>
       <r>  -21.3021    1.0000 </r>
       <r>  -21.2999    1.0000 </r>
       <r>  -21.2978    1.0000 </r>
       <r>  -21.2978    1.0000 </r>
       <r>  -21.2969    1.0000 </r>
       <r>  -21.2964    1.0000 </r>
       <r>  -21.2964    1.0000 </r>
       <r>  -21.2964    1.0000 </r>
       <r>  -21.2933    1.0000 </r>
       <r>  -21.2933    1.0000 </r>
       <r>  -21.2933    1.0000 </r>
       <r>  -21.2928    1.0000 </r>
       <r>  -21.2926    1.0000 </r>
       <r>  -21.2926    1.0000 </r>
       <r>  -21.2923    1.0000 </r>
       <r>  -21.2917    1.0000 </r>
       <r>  -21.2902    1.0000 </r>
       <r>  -21.2900    1.0000 </r>
       <r>  -21.2900    1.0000 </r>
       <r>  -21.2892    1.0000 </r>
       <r>  -21.2892    1.0000 </r>
       <r>  -21.2886    1.0000 </r>
       <r>  -21.2886    1.0000 </r>
       <r>  -21.2878    1.0000 </r>
       <r>  -21.2878    1.0000 </r>
       <r>  -21.2869    1.0000 </r>
       <r>  -21.2868    1.0000 </r>
       <r>  -21.2866    1.0000 </r>
       <r>  -21.2861    1.0000 </r>
       <r>  -21.2859    1.0000 </r>
       <r>  -21.2859    1.0000 </r>
       <r>  -21.2849    1.0000 </r>
       <r>  -21.2849    1.0000 </r>
       <r>  -21.2837    1.0000 </r>
       <r>  -21.2833    1.0000 </r>
       <r>  -21.2830    1.0000 </r>
       <r>  -21.2827    1.0000 </r>
       <r>  -21.2810    1.0000 </r>
       <r>  -21.2810    1.0000 </r>
       <r>  -21.2805    1.0000 </r>
       <r>  -21.2805    1.0000 </r>
       <r>  -21.2797    1.0000 </r>
       <r>  -21.2791    1.0000 </r>
       <r>  -21.2791    1.0000 </r>
       <r>  -21.2782    1.0000 </r>
       <r>  -21.2782    1.0000 </r>
       <r>  -21.2779    1.0000 </r>
       <r>  -21.2777    1.0000 </r>
       <r>  -21.2775    1.0000 </r>
       <r>  -21.2775    1.0000 </r>
       <r>  -21.2775    1.0000 </r>
       <r>  -21.2770    1.0000 </r>
       <r>  -21.2769    1.0000 </r>
       <r>  -21.2766    1.0000 </r>
       <r>  -21.2765    1.0000 </r>
       <r>  -21.2765    1.0000 </r>
       <r>  -21.2762    1.0000 </r>
       <r>  -21.2757    1.0000 </r>
       <r>  -21.2757    1.0000 </r>
       <r>  -21.2756    1.0000 </r>
       <r>  -21.2756    1.0000 </r>
       <r>  -21.2749    1.0000 </r>
       <r>  -21.2749    1.0000 </r>
       <r>  -21.2747    1.0000 </r>
       <r>  -21.2747    1.0000 </r>
       <r>  -21.2746    1.0000 </r>
       <r>  -21.2744    1.0000 </r>
       <r>  -21.2743    1.0000 </r>
       <r>  -21.2735    1.0000 </r>
       <r>  -21.2734    1.0000 </r>
       <r>  -21.2730    1.0000 </r>
       <r>  -21.2730    1.0000 </r>
       <r>  -21.2728    1.0000 </r>
       <r>  -21.2723    1.0000 </r>
       <r>  -21.2723    1.0000 </r>
       <r>  -21.2723    1.0000 </r>
       <r>  -21.2719    1.0000 </r>
       <r>  -21.2716    1.0000 </r>
       <r>  -21.2713    1.0000 </r>
       <r>  -21.2713    1.0000 </r>
       <r>  -21.2706    1.0000 </r>
       <r>  -21.2706    1.0000 </r>
       <r>  -21.2706    1.0000 </r>
       <r>  -21.2699    1.0000 </r>
       <r>  -21.2695    1.0000 </r>
       <r>  -21.2695    1.0000 </r>
       <r>  -21.2679    1.0000 </r>
       <r>  -21.2679    1.0000 </r>
       <r>  -21.2678    1.0000 </r>
       <r>  -21.2674    1.0000 </r>
       <r>  -21.2561    1.0000 </r>
       <r>  -21.2561    1.0000 </r>
       <r>  -21.2561    1.0000 </r>
       <r>  -13.2944    1.0000 </r>
       <r>  -13.2882    1.0000 </r>
       <r>  -13.1048    1.0000 </r>
       <r>  -13.0995    1.0000 </r>
       <r>  -13.0995    1.0000 </r>
       <r>  -13.0991    1.0000 </r>
       <r>  -13.0946    1.0000 </r>
       <r>  -13.0943    1.0000 </r>
       <r>  -13.0943    1.0000 </r>
       <r>  -13.0907    1.0000 </r>
       <r>  -13.0093    1.0000 </r>
       <r>  -13.0051    1.0000 </r>
       <r>  -13.0051    1.0000 </r>
       <r>  -13.0033    1.0000 </r>
       <r>  -12.9984    1.0000 </r>
       <r>  -12.9979    1.0000 </r>
       <r>  -12.9961    1.0000 </r>
       <r>  -12.9961    1.0000 </r>
       <r>  -12.9957    1.0000 </r>
       <r>  -12.9900    1.0000 </r>
       <r>  -12.9508    1.0000 </r>
       <r>  -12.9464    1.0000 </r>
       <r>  -12.9463    1.0000 </r>
       <r>  -12.9463    1.0000 </r>
       <r>  -12.9417    1.0000 </r>
       <r>  -12.9410    1.0000 </r>
       <r>  -12.9410    1.0000 </r>
       <r>  -12.9375    1.0000 </r>
       <r>  -12.9352    1.0000 </r>
       <r>  -12.9346    1.0000 </r>
       <r>  -12.9263    1.0000 </r>
       <r>  -12.9233    1.0000 </r>
       <r>   -2.5081    1.0000 </r>
       <r>   -2.5081    1.0000 </r>
       <r>   -2.5076    1.0000 </r>
       <r>   -2.5075    1.0000 </r>
       <r>   -2.5012    1.0000 </r>
       <r>   -2.5011    1.0000 </r>
       <r>   -2.5007    1.0000 </r>
       <r>   -2.5007    1.0000 </r>
       <r>   -2.2905    1.0000 </r>
       <r>   -2.2905    1.0000 </r>
       <r>   -2.2848    1.0000 </r>
       <r>   -2.2848    1.0000 </r>
       <r>   -2.2776    1.0000 </r>
       <r>   -2.2708    1.0000 </r>
       <r>   -2.1423    1.0000 </r>
       <r>   -2.1373    1.0000 </r>
       <r>   -2.1367    1.0000 </r>
       <r>   -2.1367    1.0000 </r>
       <r>   -2.1361    1.0000 </r>
       <r>   -2.1361    1.0000 </r>
       <r>   -2.1355    1.0000 </r>
       <r>   -2.1307    1.0000 </r>
       <r>   -1.9880    1.0000 </r>
       <r>   -1.9880    1.0000 </r>
       <r>   -1.9868    1.0000 </r>
       <r>   -1.9866    1.0000 </r>
       <r>   -1.9841    1.0000 </r>
       <r>   -1.9840    1.0000 </r>
       <r>   -1.9829    1.0000 </r>
       <r>   -1.9829    1.0000 </r>
       <r>   -1.8123    1.0000 </r>
       <r>   -1.8123    1.0000 </r>
       <r>   -1.8115    1.0000 </r>
       <r>   -1.8112    1.0000 </r>
       <r>   -1.8063    1.0000 </r>
       <r>   -1.8060    1.0000 </r>
       <r>   -1.8052    1.0000 </r>
       <r>   -1.8052    1.0000 </r>
       <r>   -1.5017    1.0000 </r>
       <r>   -1.5017    1.0000 </r>
       <r>   -1.4937    1.0000 </r>
       <r>   -1.4937    1.0000 </r>
       <r>   -1.3859    1.0000 </r>
       <r>   -1.3844    1.0000 </r>
       <r>   -1.3763    1.0000 </r>
       <r>   -1.3752    1.0000 </r>
       <r>   -1.2156    1.0000 </r>
       <r>   -1.2156    1.0000 </r>
       <r>   -1.2095    1.0000 </r>
       <r>   -1.2095    1.0000 </r>
       <r>   -1.1958    1.0000 </r>
       <r>   -1.1931    1.0000 </r>
       <r>   -1.1931    1.0000 </r>
       <r>   -1.1919    1.0000 </r>
       <r>   -1.1899    1.0000 </r>
       <r>   -1.1895    1.0000 </r>
       <r>   -1.1895    1.0000 </r>
       <r>   -1.1890    1.0000 </r>
       <r>   -1.1796    1.0000 </r>
       <r>   -1.1781    1.0000 </r>
       <r>   -1.1781    1.0000 </r>
       <r>   -1.1763    1.0000 </r>
       <r>   -1.1723    1.0000 </r>
       <r>   -1.1707    1.0000 </r>
       <r>   -1.1707    1.0000 </r>
       <r>   -1.1664    1.0000 </r>
       <r>   -1.1648    1.0000 </r>
       <r>   -1.1648    1.0000 </r>
       <r>   -1.1622    1.0000 </r>
       <r>   -1.1621    1.0000 </r>
       <r>   -1.1574    1.0000 </r>
       <r>   -1.1570    1.0000 </r>
       <r>   -1.1528    1.0000 </r>
       <r>   -1.1528    1.0000 </r>
       <r>   -1.0868    1.0000 </r>
       <r>   -1.0795    1.0000 </r>
       <r>   -0.9517    1.0000 </r>
       <r>   -0.9517    1.0000 </r>
       <r>   -0.9516    1.0000 </r>
       <r>   -0.9511    1.0000 </r>
       <r>   -0.9425    1.0000 </r>
       <r>   -0.9423    1.0000 </r>
       <r>   -0.9422    1.0000 </r>
       <r>   -0.9422    1.0000 </r>
       <r>   -0.9386    1.0000 </r>
       <r>   -0.9340    1.0000 </r>
       <r>   -0.9340    1.0000 </r>
       <r>   -0.9335    1.0000 </r>
       <r>   -0.9311    1.0000 </r>
       <r>   -0.9304    1.0000 </r>
       <r>   -0.9304    1.0000 </r>
       <r>   -0.9253    1.0000 </r>
       <r>   -0.7721    1.0000 </r>
       <r>   -0.7721    1.0000 </r>
       <r>   -0.7644    1.0000 </r>
       <r>   -0.7644    1.0000 </r>
       <r>    5.0183    0.0000 </r>
       <r>    5.0263    0.0000 </r>
       <r>    6.7096    0.0000 </r>
       <r>    6.7141    0.0000 </r>
       <r>    6.7141    0.0000 </r>
       <r>    6.7169    0.0000 </r>
       <r>    6.7198    0.0000 </r>
       <r>    6.7221    0.0000 </r>
       <r>    6.7221    0.0000 </r>
       <r>    6.7261    0.0000 </r>
       <r>    6.8383    0.0000 </r>
       <r>    6.8383    0.0000 </r>
       <r>    6.8390    0.0000 </r>
       <r>    6.8403    0.0000 </r>
       <r>    6.8461    0.0000 </r>
       <r>    6.8473    0.0000 </r>
       <r>    6.8483    0.0000 </r>
       <r>    6.8483    0.0000 </r>
       <r>    6.9680    0.0000 </r>
       <r>    6.9744    0.0000 </r>
       <r>    7.3562    0.0000 </r>
       <r>    7.3591    0.0000 </r>
       <r>    7.3660    0.0000 </r>
       <r>    7.3690    0.0000 </r>
       <r>    7.4771    0.0000 </r>
       <r>    7.4834    0.0000 </r>
       <r>    7.7099    0.0000 </r>
       <r>    7.7099    0.0000 </r>
       <r>    7.7193    0.0000 </r>
       <r>    7.7193    0.0000 </r>
       <r>    8.2556    0.0000 </r>
       <r>    8.2627    0.0000 </r>
       <r>    8.2627    0.0000 </r>
       <r>    8.2651    0.0000 </r>
       <r>    8.2668    0.0000 </r>
       <r>    8.2689    0.0000 </r>
       <r>    8.2689    0.0000 </r>
       <r>    8.2756    0.0000 </r>
       <r>    8.5299    0.0000 </r>
       <r>    8.5299    0.0000 </r>
       <r>    8.5314    0.0000 </r>
       <r>    8.5357    0.0000 </r>
       <r>    8.5357    0.0000 </r>
       <r>    8.5359    0.0000 </r>
       <r>    8.5362    0.0000 </r>
       <r>    8.5369    0.0000 </r>
       <r>    8.5369    0.0000 </r>
       <r>    8.5372    0.0000 </r>
       <r>    8.5403    0.0000 </r>
       <r>    8.5407    0.0000 </r>
       <r>    8.5411    0.0000 </r>
       <r>    8.5458    0.0000 </r>
       <r>    8.5513    0.0000 </r>
       <r>    8.5513    0.0000 </r>
       <r>    8.9460    0.0000 </r>
       <r>    8.9460    0.0000 </r>
       <r>    8.9460    0.0000 </r>
       <r>    8.9490    0.0000 </r>
       <r>    8.9528    0.0000 </r>
       <r>    8.9559    0.0000 </r>
       <r>    8.9562    0.0000 </r>
       <r>    8.9562    0.0000 </r>
       <r>    9.4890    0.0000 </r>
       <r>    9.5053    0.0000 </r>
      </set>
      <set comment="kpoint 3">
       <r>  -21.3083    1.0000 </r>
       <r>  -21.3083    1.0000 </r>
       <r>  -21.3080    1.0000 </r>
       <r>  -21.3006    1.0000 </r>
       <r>  -21.2999    1.0000 </r>
       <r>  -21.2998    1.0000 </r>
       <r>  -21.2997    1.0000 </r>
       <r>  -21.2996    1.0000 </r>
       <r>  -21.2970    1.0000 </r>
       <r>  -21.2969    1.0000 </r>
       <r>  -21.2953    1.0000 </r>
       <r>  -21.2935    1.0000 </r>
       <r>  -21.2932    1.0000 </r>
       <r>  -21.2924    1.0000 </r>
       <r>  -21.2920    1.0000 </r>
       <r>  -21.2915    1.0000 </r>
       <r>  -21.2913    1.0000 </r>
       <r>  -21.2911    1.0000 </r>
       <r>  -21.2910    1.0000 </r>
       <r>  -21.2908    1.0000 </r>
       <r>  -21.2903    1.0000 </r>
       <r>  -21.2896    1.0000 </r>
       <r>  -21.2895    1.0000 </r>
       <r>  -21.2893    1.0000 </r>
       <r>  -21.2888    1.0000 </r>
       <r>  -21.2885    1.0000 </r>
       <r>  -21.2882    1.0000 </r>
       <r>  -21.2879    1.0000 </r>
       <r>  -21.2870    1.0000 </r>
       <r>  -21.2869    1.0000 </r>
       <r>  -21.2867    1.0000 </r>
       <r>  -21.2850    1.0000 </r>
       <r>  -21.2847    1.0000 </r>
       <r>  -21.2843    1.0000 </r>
       <r>  -21.2841    1.0000 </r>
       <r>  -21.2841    1.0000 </r>
       <r>  -21.2837    1.0000 </r>
       <r>  -21.2833    1.0000 </r>
       <r>  -21.2829    1.0000 </r>
       <r>  -21.2825    1.0000 </r>
       <r>  -21.2816    1.0000 </r>
       <r>  -21.2809    1.0000 </r>
       <r>  -21.2808    1.0000 </r>
       <r>  -21.2807    1.0000 </r>
       <r>  -21.2806    1.0000 </r>
       <r>  -21.2804    1.0000 </r>
       <r>  -21.2798    1.0000 </r>
       <r>  -21.2793    1.0000 </r>
       <r>  -21.2790    1.0000 </r>
       <r>  -21.2789    1.0000 </r>
       <r>  -21.2783    1.0000 </r>
       <r>  -21.2783    1.0000 </r>
       <r>  -21.2780    1.0000 </r>
       <r>  -21.2776    1.0000 </r>
       <r>  -21.2774    1.0000 </r>
       <r>  -21.2773    1.0000 </r>
       <r>  -21.2771    1.0000 </r>
       <r>  -21.2768    1.0000 </r>
       <r>  -21.2764    1.0000 </r>
       <r>  -21.2763    1.0000 </r>
       <r>  -21.2762    1.0000 </r>
       <r>  -21.2760    1.0000 </r>
       <r>  -21.2759    1.0000 </r>
       <r>  -21.2754    1.0000 </r>
       <r>  -21.2750    1.0000 </r>
       <r>  -21.2748    1.0000 </r>
       <r>  -21.2747    1.0000 </r>
       <r>  -21.2746    1.0000 </r>
       <r>  -21.2741    1.0000 </r>
       <r>  -21.2740    1.0000 </r>
       <r>  -21.2736    1.0000 </r>
       <r>  -21.2735    1.0000 </r>
       <r>  -21.2731    1.0000 </r>
       <r>  -21.2726    1.0000 </r>
       <r>  -21.2723    1.0000 </r>
       <r>  -21.2722    1.0000 </r>
       <r>  -21.2717    1.0000 </r>
       <r>  -21.2716    1.0000 </r>
       <r>  -21.2715    1.0000 </r>
       <r>  -21.2714    1.0000 </r>
       <r>  -21.2713    1.0000 </r>
       <r>  -21.2707    1.0000 </r>
       <r>  -21.2707    1.0000 </r>
       <r>  -21.2706    1.0000 </r>
       <r>  -21.2702    1.0000 </r>
       <r>  -21.2700    1.0000 </r>
       <r>  -21.2699    1.0000 </r>
       <r>  -21.2694    1.0000 </r>
       <r>  -21.2693    1.0000 </r>
       <r>  -21.2689    1.0000 </r>
       <r>  -21.2687    1.0000 </r>
       <r>  -21.2684    1.0000 </r>
       <r>  -21.2681    1.0000 </r>
       <r>  -21.2563    1.0000 </r>
       <r>  -21.2562    1.0000 </r>
       <r>  -21.2560    1.0000 </r>
       <r>  -13.2915    1.0000 </r>
       <r>  -13.2912    1.0000 </r>
       <r>  -13.1042    1.0000 </r>
       <r>  -13.0984    1.0000 </r>
       <r>  -13.0971    1.0000 </r>
       <r>  -13.0969    1.0000 </r>
       <r>  -13.0969    1.0000 </r>
       <r>  -13.0968    1.0000 </r>
       <r>  -13.0954    1.0000 </r>
       <r>  -13.0913    1.0000 </r>
       <r>  -13.0063    1.0000 </r>
       <r>  -13.0011    1.0000 </r>
       <r>  -13.0010    1.0000 </r>
       <r>  -13.0008    1.0000 </r>
       <r>  -13.0007    1.0000 </r>
       <r>  -13.0006    1.0000 </r>
       <r>  -13.0006    1.0000 </r>
       <r>  -13.0004    1.0000 </r>
       <r>  -12.9952    1.0000 </r>
       <r>  -12.9921    1.0000 </r>
       <r>  -12.9496    1.0000 </r>
       <r>  -12.9455    1.0000 </r>
       <r>  -12.9453    1.0000 </r>
       <r>  -12.9439    1.0000 </r>
       <r>  -12.9437    1.0000 </r>
       <r>  -12.9432    1.0000 </r>
       <r>  -12.9423    1.0000 </r>
       <r>  -12.9376    1.0000 </r>
       <r>  -12.9311    1.0000 </r>
       <r>  -12.9307    1.0000 </r>
       <r>  -12.9305    1.0000 </r>
       <r>  -12.9250    1.0000 </r>
       <r>   -2.5053    1.0000 </r>
       <r>   -2.5048    1.0000 </r>
       <r>   -2.5047    1.0000 </r>
       <r>   -2.5044    1.0000 </r>
       <r>   -2.5042    1.0000 </r>
       <r>   -2.5040    1.0000 </r>
       <r>   -2.5040    1.0000 </r>
       <r>   -2.5036    1.0000 </r>
       <r>   -2.2877    1.0000 </r>
       <r>   -2.2877    1.0000 </r>
       <r>   -2.2876    1.0000 </r>
       <r>   -2.2876    1.0000 </r>
       <r>   -2.2743    1.0000 </r>
       <r>   -2.2741    1.0000 </r>
       <r>   -2.1407    1.0000 </r>
       <r>   -2.1365    1.0000 </r>
       <r>   -2.1365    1.0000 </r>
       <r>   -2.1364    1.0000 </r>
       <r>   -2.1364    1.0000 </r>
       <r>   -2.1363    1.0000 </r>
       <r>   -2.1362    1.0000 </r>
       <r>   -2.1318    1.0000 </r>
       <r>   -1.9869    1.0000 </r>
       <r>   -1.9869    1.0000 </r>
       <r>   -1.9856    1.0000 </r>
       <r>   -1.9855    1.0000 </r>
       <r>   -1.9854    1.0000 </r>
       <r>   -1.9853    1.0000 </r>
       <r>   -1.9841    1.0000 </r>
       <r>   -1.9840    1.0000 </r>
       <r>   -1.8115    1.0000 </r>
       <r>   -1.8097    1.0000 </r>
       <r>   -1.8089    1.0000 </r>
       <r>   -1.8088    1.0000 </r>
       <r>   -1.8088    1.0000 </r>
       <r>   -1.8086    1.0000 </r>
       <r>   -1.8085    1.0000 </r>
       <r>   -1.8050    1.0000 </r>
       <r>   -1.4979    1.0000 </r>
       <r>   -1.4978    1.0000 </r>
       <r>   -1.4978    1.0000 </r>
       <r>   -1.4977    1.0000 </r>
       <r>   -1.3806    1.0000 </r>
       <r>   -1.3805    1.0000 </r>
       <r>   -1.3804    1.0000 </r>
       <r>   -1.3804    1.0000 </r>
       <r>   -1.2143    1.0000 </r>
       <r>   -1.2126    1.0000 </r>
       <r>   -1.2125    1.0000 </r>
       <r>   -1.2123    1.0000 </r>
       <r>   -1.1936    1.0000 </r>
       <r>   -1.1925    1.0000 </r>
       <r>   -1.1921    1.0000 </r>
       <r>   -1.1917    1.0000 </r>
       <r>   -1.1916    1.0000 </r>
       <r>   -1.1908    1.0000 </r>
       <r>   -1.1896    1.0000 </r>
       <r>   -1.1888    1.0000 </r>
       <r>   -1.1761    1.0000 </r>
       <r>   -1.1749    1.0000 </r>
       <r>   -1.1746    1.0000 </r>
       <r>   -1.1743    1.0000 </r>
       <r>   -1.1741    1.0000 </r>
       <r>   -1.1735    1.0000 </r>
       <r>   -1.1731    1.0000 </r>
       <r>   -1.1718    1.0000 </r>
       <r>   -1.1615    1.0000 </r>
       <r>   -1.1605    1.0000 </r>
       <r>   -1.1598    1.0000 </r>
       <r>   -1.1597    1.0000 </r>
       <r>   -1.1595    1.0000 </r>
       <r>   -1.1588    1.0000 </r>
       <r>   -1.1573    1.0000 </r>
       <r>   -1.1560    1.0000 </r>
       <r>   -1.0833    1.0000 </r>
       <r>   -1.0831    1.0000 </r>
       <r>   -0.9482    1.0000 </r>
       <r>   -0.9473    1.0000 </r>
       <r>   -0.9469    1.0000 </r>
       <r>   -0.9469    1.0000 </r>
       <r>   -0.9468    1.0000 </r>
       <r>   -0.9468    1.0000 </r>
       <r>   -0.9466    1.0000 </r>
       <r>   -0.9454    1.0000 </r>
       <r>   -0.9369    1.0000 </r>
       <r>   -0.9341    1.0000 </r>
       <r>   -0.9333    1.0000 </r>
       <r>   -0.9323    1.0000 </r>
       <r>   -0.9321    1.0000 </r>
       <r>   -0.9316    1.0000 </r>
       <r>   -0.9305    1.0000 </r>
       <r>   -0.9263    1.0000 </r>
       <r>   -0.7684    1.0000 </r>
       <r>   -0.7683    1.0000 </r>
       <r>   -0.7680    1.0000 </r>
       <r>   -0.7679    1.0000 </r>
       <r>    5.0222    0.0000 </r>
       <r>    5.0224    0.0000 </r>
       <r>    6.7099    0.0000 </r>
       <r>    6.7160    0.0000 </r>
       <r>    6.7165    0.0000 </r>
       <r>    6.7177    0.0000 </r>
       <r>    6.7179    0.0000 </r>
       <r>    6.7184    0.0000 </r>
       <r>    6.7205    0.0000 </r>
       <r>    6.7278    0.0000 </r>
       <r>    6.8391    0.0000 </r>
       <r>    6.8391    0.0000 </r>
       <r>    6.8414    0.0000 </r>
       <r>    6.8431    0.0000 </r>
       <r>    6.8434    0.0000 </r>
       <r>    6.8451    0.0000 </r>
       <r>    6.8477    0.0000 </r>
       <r>    6.8477    0.0000 </r>
       <r>    6.9711    0.0000 </r>
       <r>    6.9712    0.0000 </r>
       <r>    7.3625    0.0000 </r>
       <r>    7.3625    0.0000 </r>
       <r>    7.3626    0.0000 </r>
       <r>    7.3628    0.0000 </r>
       <r>    7.4802    0.0000 </r>
       <r>    7.4803    0.0000 </r>
       <r>    7.7145    0.0000 </r>
       <r>    7.7146    0.0000 </r>
       <r>    7.7146    0.0000 </r>
       <r>    7.7146    0.0000 </r>
       <r>    8.2591    0.0000 </r>
       <r>    8.2633    0.0000 </r>
       <r>    8.2643    0.0000 </r>
       <r>    8.2657    0.0000 </r>
       <r>    8.2659    0.0000 </r>
       <r>    8.2660    0.0000 </r>
       <r>    8.2676    0.0000 </r>
       <r>    8.2751    0.0000 </r>
       <r>    8.5296    0.0000 </r>
       <r>    8.5317    0.0000 </r>
       <r>    8.5347    0.0000 </r>
       <r>    8.5354    0.0000 </r>
       <r>    8.5373    0.0000 </r>
       <r>    8.5375    0.0000 </r>
       <r>    8.5375    0.0000 </r>
       <r>    8.5380    0.0000 </r>
       <r>    8.5380    0.0000 </r>
       <r>    8.5384    0.0000 </r>
       <r>    8.5388    0.0000 </r>
       <r>    8.5388    0.0000 </r>
       <r>    8.5422    0.0000 </r>
       <r>    8.5438    0.0000 </r>
       <r>    8.5466    0.0000 </r>
       <r>    8.5478    0.0000 </r>
       <r>    8.9421    0.0000 </r>
       <r>    8.9455    0.0000 </r>
       <r>    8.9502    0.0000 </r>
       <r>    8.9508    0.0000 </r>
       <r>    8.9509    0.0000 </r>
       <r>    8.9509    0.0000 </r>
       <r>    8.9516    0.0000 </r>
       <r>    8.9651    0.0000 </r>
       <r>    9.4933    0.0000 </r>
       <r>    9.4992    0.0000 </r>
      </set>
      <set comment="kpoint 4">
       <r>  -21.3080    1.0000 </r>
       <r>  -21.3079    1.0000 </r>
       <r>  -21.3078    1.0000 </r>
       <r>  -21.2994    1.0000 </r>
       <r>  -21.2983    1.0000 </r>
       <r>  -21.2979    1.0000 </r>
       <r>  -21.2976    1.0000 </r>
       <r>  -21.2973    1.0000 </r>
       <r>  -21.2965    1.0000 </r>
       <r>  -21.2959    1.0000 </r>
       <r>  -21.2955    1.0000 </r>
       <r>  -21.2940    1.0000 </r>
       <r>  -21.2938    1.0000 </r>
       <r>  -21.2937    1.0000 </r>
       <r>  -21.2932    1.0000 </r>
       <r>  -21.2930    1.0000 </r>
       <r>  -21.2929    1.0000 </r>
       <r>  -21.2928    1.0000 </r>
       <r>  -21.2924    1.0000 </r>
       <r>  -21.2921    1.0000 </r>
       <r>  -21.2919    1.0000 </r>
       <r>  -21.2917    1.0000 </r>
       <r>  -21.2914    1.0000 </r>
       <r>  -21.2906    1.0000 </r>
       <r>  -21.2904    1.0000 </r>
       <r>  -21.2894    1.0000 </r>
       <r>  -21.2885    1.0000 </r>
       <r>  -21.2885    1.0000 </r>
       <r>  -21.2875    1.0000 </r>
       <r>  -21.2871    1.0000 </r>
       <r>  -21.2862    1.0000 </r>
       <r>  -21.2859    1.0000 </r>
       <r>  -21.2845    1.0000 </r>
       <r>  -21.2842    1.0000 </r>
       <r>  -21.2841    1.0000 </r>
       <r>  -21.2819    1.0000 </r>
       <r>  -21.2817    1.0000 </r>
       <r>  -21.2816    1.0000 </r>
       <r>  -21.2809    1.0000 </r>
       <r>  -21.2806    1.0000 </r>
       <r>  -21.2806    1.0000 </r>
       <r>  -21.2804    1.0000 </r>
       <r>  -21.2803    1.0000 </r>
       <r>  -21.2802    1.0000 </r>
       <r>  -21.2795    1.0000 </r>
       <r>  -21.2794    1.0000 </r>
       <r>  -21.2793    1.0000 </r>
       <r>  -21.2790    1.0000 </r>
       <r>  -21.2788    1.0000 </r>
       <r>  -21.2786    1.0000 </r>
       <r>  -21.2782    1.0000 </r>
       <r>  -21.2780    1.0000 </r>
       <r>  -21.2779    1.0000 </r>
       <r>  -21.2778    1.0000 </r>
       <r>  -21.2776    1.0000 </r>
       <r>  -21.2774    1.0000 </r>
       <r>  -21.2774    1.0000 </r>
       <r>  -21.2771    1.0000 </r>
       <r>  -21.2769    1.0000 </r>
       <r>  -21.2766    1.0000 </r>
[...]
      </set>
     </set>
    </set>
   </array>
  </eigenvalues>
  <separator name="orbital magnetization" >
   <v name="MAGDIPOLOUT">      0.00000000      0.00000000      0.00000000</v>
  </separator>
  <dos>
   <i name="efermi">     -0.56335871 </i>
   <total>
    <array>
     <dimension dim="1">gridpoints</dimension>
     <dimension dim="2">spin</dimension>
     <field>energy</field>
     <field>total</field>
     <field>integrated</field>
     <set>
      <set comment="spin 1">
       <r>   -22.8499     0.0000     0.0000 </r>
       <r>   -22.7369     0.0000     0.0000 </r>
       <r>   -22.6239     0.0000     0.0000 </r>
       <r>   -22.5109     0.0000     0.0000 </r>
       <r>   -22.3979     0.0000     0.0000 </r>
       <r>   -22.2850     0.0000     0.0000 </r>
       <r>   -22.1720     0.0000     0.0000 </r>
       <r>   -22.0590     0.0000     0.0000 </r>
       <r>   -21.9460     0.0000     0.0000 </r>
       <r>   -21.8330     0.0000     0.0000 </r>
       <r>   -21.7200     0.0000     0.0000 </r>
       <r>   -21.6070     0.0000     0.0000 </r>
       <r>   -21.4941     0.0000     0.0000 </r>
       <r>   -21.3811     0.0000     0.0000 </r>
       <r>   -21.2681  1303.9893   147.3328 </r>
       <r>   -21.1551   395.3328   192.0000 </r>
       <r>   -21.0421     0.0000   192.0000 </r>
       <r>   -20.9291     0.0000   192.0000 </r>
       <r>   -20.8161     0.0000   192.0000 </r>
       <r>   -20.7032     0.0000   192.0000 </r>
       <r>   -20.5902     0.0000   192.0000 </r>
       <r>   -20.4772     0.0000   192.0000 </r>
       <r>   -20.3642     0.0000   192.0000 </r>
       <r>   -20.2512     0.0000   192.0000 </r>
       <r>   -20.1382     0.0000   192.0000 </r>
       <r>   -20.0252     0.0000   192.0000 </r>
       <r>   -19.9123     0.0000   192.0000 </r>
       <r>   -19.7993     0.0000   192.0000 </r>
       <r>   -19.6863     0.0000   192.0000 </r>
       <r>   -19.5733     0.0000   192.0000 </r>
       <r>   -19.4603     0.0000   192.0000 </r>
       <r>   -19.3473     0.0000   192.0000 </r>
       <r>   -19.2343     0.0000   192.0000 </r>
       <r>   -19.1213     0.0000   192.0000 </r>
       <r>   -19.0084     0.0000   192.0000 </r>
       <r>   -18.8954     0.0000   192.0000 </r>
       <r>   -18.7824     0.0000   192.0000 </r>
       <r>   -18.6694     0.0000   192.0000 </r>
       <r>   -18.5564     0.0000   192.0000 </r>
       <r>   -18.4434     0.0000   192.0000 </r>
       <r>   -18.3304     0.0000   192.0000 </r>
       <r>   -18.2175     0.0000   192.0000 </r>
       <r>   -18.1045     0.0000   192.0000 </r>
       <r>   -17.9915     0.0000   192.0000 </r>
       <r>   -17.8785     0.0000   192.0000 </r>
       <r>   -17.7655     0.0000   192.0000 </r>
       <r>   -17.6525     0.0000   192.0000 </r>
       <r>   -17.5395     0.0000   192.0000 </r>
       <r>   -17.4266     0.0000   192.0000 </r>
       <r>   -17.3136     0.0000   192.0000 </r>
       <r>   -17.2006     0.0000   192.0000 </r>
       <r>   -17.0876     0.0000   192.0000 </r>
       <r>   -16.9746     0.0000   192.0000 </r>
       <r>   -16.8616     0.0000   192.0000 </r>
       <r>   -16.7486     0.0000   192.0000 </r>
       <r>   -16.6357     0.0000   192.0000 </r>
       <r>   -16.5227     0.0000   192.0000 </r>
       <r>   -16.4097     0.0000   192.0000 </r>
       <r>   -16.2967     0.0000   192.0000 </r>
       <r>   -16.1837     0.0000   192.0000 </r>
       <r>   -16.0707     0.0000   192.0000 </r>
       <r>   -15.9577     0.0000   192.0000 </r>
       <r>   -15.8447     0.0000   192.0000 </r>
       <r>   -15.7318     0.0000   192.0000 </r>
       <r>   -15.6188     0.0000   192.0000 </r>
       <r>   -15.5058     0.0000   192.0000 </r>
       <r>   -15.3928     0.0000   192.0000 </r>
       <r>   -15.2798     0.0000   192.0000 </r>
       <r>   -15.1668     0.0000   192.0000 </r>
       <r>   -15.0538     0.0000   192.0000 </r>
       <r>   -14.9409     0.0000   192.0000 </r>
       <r>   -14.8279     0.0000   192.0000 </r>
       <r>   -14.7149     0.0000   192.0000 </r>
       <r>   -14.6019     0.0000   192.0000 </r>
       <r>   -14.4889     0.0000   192.0000 </r>
       <r>   -14.3759     0.0000   192.0000 </r>
       <r>   -14.2629     0.0000   192.0000 </r>
       <r>   -14.1500     0.0000   192.0000 </r>
       <r>   -14.0370     0.0000   192.0000 </r>
       <r>   -13.9240     0.0000   192.0000 </r>
       <r>   -13.8110     0.0000   192.0000 </r>
       <r>   -13.6980     0.0000   192.0000 </r>
       <r>   -13.5850     0.0000   192.0000 </r>
       <r>   -13.4720     0.0000   192.0000 </r>
       <r>   -13.3590     1.0453   192.1181 </r>
       <r>   -13.2461    18.7269   194.2340 </r>
       <r>   -13.1331    48.5942   199.7245 </r>
       <r>   -13.0201   124.1730   213.7546 </r>
       <r>   -12.9071   367.8726   255.3196 </r>
       <r>   -12.7941     6.0133   256.0000 </r>
       <r>   -12.6811     0.0000   256.0000 </r>
       <r>   -12.5681     0.0000   256.0000 </r>
       <r>   -12.4552     0.0000   256.0000 </r>
       <r>   -12.3422     0.0000   256.0000 </r>
       <r>   -12.2292     0.0000   256.0000 </r>
       <r>   -12.1162     0.0000   256.0000 </r>
       <r>   -12.0032     0.0000   256.0000 </r>
       <r>   -11.8902     0.0000   256.0000 </r>
       <r>   -11.7772     0.0000   256.0000 </r>
       <r>   -11.6643     0.0000   256.0000 </r>
       <r>   -11.5513     0.0000   256.0000 </r>
       <r>   -11.4383     0.0000   256.0000 </r>
       <r>   -11.3253     0.0000   256.0000 </r>
       <r>   -11.2123     0.0000   256.0000 </r>
       <r>   -11.0993     0.0000   256.0000 </r>
       <r>   -10.9863     0.0000   256.0000 </r>
       <r>   -10.8734     0.0000   256.0000 </r>
       <r>   -10.7604     0.0000   256.0000 </r>
       <r>   -10.6474     0.0000   256.0000 </r>
       <r>   -10.5344     0.0000   256.0000 </r>
       <r>   -10.4214     0.0000   256.0000 </r>
       <r>   -10.3084     0.0000   256.0000 </r>
       <r>   -10.1954     0.0000   256.0000 </r>
       <r>   -10.0824     0.0000   256.0000 </r>
       <r>    -9.9695     0.0000   256.0000 </r>
       <r>    -9.8565     0.0000   256.0000 </r>
       <r>    -9.7435     0.0000   256.0000 </r>
       <r>    -9.6305     0.0000   256.0000 </r>
       <r>    -9.5175     0.0000   256.0000 </r>
       <r>    -9.4045     0.0000   256.0000 </r>
       <r>    -9.2915     0.0000   256.0000 </r>
       <r>    -9.1786     0.0000   256.0000 </r>
       <r>    -9.0656     0.0000   256.0000 </r>
       <r>    -8.9526     0.0000   256.0000 </r>
       <r>    -8.8396     0.0000   256.0000 </r>
       <r>    -8.7266     0.0000   256.0000 </r>
       <r>    -8.6136     0.0000   256.0000 </r>
       <r>    -8.5006     0.0000   256.0000 </r>
       <r>    -8.3877     0.0000   256.0000 </r>
       <r>    -8.2747     0.0000   256.0000 </r>
       <r>    -8.1617     0.0000   256.0000 </r>
       <r>    -8.0487     0.0000   256.0000 </r>
       <r>    -7.9357     0.0000   256.0000 </r>
       <r>    -7.8227     0.0000   256.0000 </r>
       <r>    -7.7097     0.0000   256.0000 </r>
       <r>    -7.5968     0.0000   256.0000 </r>
       <r>    -7.4838     0.0000   256.0000 </r>
       <r>    -7.3708     0.0000   256.0000 </r>
       <r>    -7.2578     0.0000   256.0000 </r>
       <r>    -7.1448     0.0000   256.0000 </r>
       <r>    -7.0318     0.0000   256.0000 </r>
       <r>    -6.9188     0.0000   256.0000 </r>
       <r>    -6.8058     0.0000   256.0000 </r>
       <r>    -6.6929     0.0000   256.0000 </r>
       <r>    -6.5799     0.0000   256.0000 </r>
       <r>    -6.4669     0.0000   256.0000 </r>
       <r>    -6.3539     0.0000   256.0000 </r>
       <r>    -6.2409     0.0000   256.0000 </r>
       <r>    -6.1279     0.0000   256.0000 </r>
       <r>    -6.0149     0.0000   256.0000 </r>
       <r>    -5.9020     0.0000   256.0000 </r>
       <r>    -5.7890     0.0000   256.0000 </r>
       <r>    -5.6760     0.0000   256.0000 </r>
       <r>    -5.5630     0.0000   256.0000 </r>
       <r>    -5.4500     0.0000   256.0000 </r>
       <r>    -5.3370     0.0000   256.0000 </r>
       <r>    -5.2240     0.0000   256.0000 </r>
       <r>    -5.1111     0.0000   256.0000 </r>
       <r>    -4.9981     0.0000   256.0000 </r>
       <r>    -4.8851     0.0000   256.0000 </r>
       <r>    -4.7721     0.0000   256.0000 </r>
       <r>    -4.6591     0.0000   256.0000 </r>
       <r>    -4.5461     0.0000   256.0000 </r>
       <r>    -4.4331     0.0000   256.0000 </r>
       <r>    -4.3202     0.0000   256.0000 </r>
       <r>    -4.2072     0.0000   256.0000 </r>
       <r>    -4.0942     0.0000   256.0000 </r>
       <r>    -3.9812     0.0000   256.0000 </r>
       <r>    -3.8682     0.0000   256.0000 </r>
       <r>    -3.7552     0.0000   256.0000 </r>
       <r>    -3.6422     0.0000   256.0000 </r>
       <r>    -3.5292     0.0000   256.0000 </r>
       <r>    -3.4163     0.0000   256.0000 </r>
       <r>    -3.3033     0.0000   256.0000 </r>
       <r>    -3.1903     0.0000   256.0000 </r>
       <r>    -3.0773     0.0000   256.0000 </r>
       <r>    -2.9643     0.0000   256.0000 </r>
       <r>    -2.8513     0.0000   256.0000 </r>
       <r>    -2.7383     0.0297   256.0034 </r>
       <r>    -2.6254     8.8210   257.0000 </r>
       <r>    -2.5124    15.2850   258.7270 </r>
       <r>    -2.3994    88.2662   268.6999 </r>
       <r>    -2.2864    79.4673   277.6786 </r>
       <r>    -2.1734   158.4801   295.5848 </r>
       <r>    -2.0604    76.6923   304.2500 </r>
       <r>    -1.9474    54.3765   310.3938 </r>
       <r>    -1.8345    54.8971   316.5964 </r>
       <r>    -1.7215    81.0152   325.7500 </r>
       <r>    -1.6085     0.0000   325.7500 </r>
       <r>    -1.4955    48.2244   331.1987 </r>
       <r>    -1.3825   211.6902   355.1168 </r>
       <r>    -1.2695    31.7353   358.7024 </r>
       <r>    -1.1565   237.8533   385.5766 </r>
       <r>    -1.0436   149.5505   402.4738 </r>
       <r>    -0.9306   244.2042   430.0657 </r>
       <r>    -0.8176    74.2027   438.4496 </r>
       <r>    -0.7046    77.6906   447.2276 </r>
       <r>    -0.5916     6.8365   448.0000 </r>
       <r>    -0.4786     0.0000   448.0000 </r>
       <r>    -0.3656     0.0000   448.0000 </r>
       <r>    -0.2526     0.0000   448.0000 </r>
       <r>    -0.1397     0.0000   448.0000 </r>
       <r>    -0.0267     0.0000   448.0000 </r>
       <r>     0.0863     0.0000   448.0000 </r>
       <r>     0.1993     0.0000   448.0000 </r>
       <r>     0.3123     0.0000   448.0000 </r>
       <r>     0.4253     0.0000   448.0000 </r>
       <r>     0.5383     0.0000   448.0000 </r>
       <r>     0.6512     0.0000   448.0000 </r>
       <r>     0.7642     0.0000   448.0000 </r>
       <r>     0.8772     0.0000   448.0000 </r>
       <r>     0.9902     0.0000   448.0000 </r>
       <r>     1.1032     0.0000   448.0000 </r>
       <r>     1.2162     0.0000   448.0000 </r>
       <r>     1.3292     0.0000   448.0000 </r>
       <r>     1.4421     0.0000   448.0000 </r>
       <r>     1.5551     0.0000   448.0000 </r>
       <r>     1.6681     0.0000   448.0000 </r>
       <r>     1.7811     0.0000   448.0000 </r>
       <r>     1.8941     0.0000   448.0000 </r>
       <r>     2.0071     0.0000   448.0000 </r>
       <r>     2.1201     0.0000   448.0000 </r>
       <r>     2.2331     0.0000   448.0000 </r>
       <r>     2.3460     0.0000   448.0000 </r>
       <r>     2.4590     0.0000   448.0000 </r>
       <r>     2.5720     0.0000   448.0000 </r>
       <r>     2.6850     0.0000   448.0000 </r>
       <r>     2.7980     0.0000   448.0000 </r>
       <r>     2.9110     0.0000   448.0000 </r>
       <r>     3.0240     0.0000   448.0000 </r>
       <r>     3.1369     0.0000   448.0000 </r>
       <r>     3.2499     0.0000   448.0000 </r>
       <r>     3.3629     0.0000   448.0000 </r>
       <r>     3.4759     0.0000   448.0000 </r>
       <r>     3.5889     0.0000   448.0000 </r>
       <r>     3.7019     0.0000   448.0000 </r>
       <r>     3.8149     0.0000   448.0000 </r>
       <r>     3.9278     0.0000   448.0000 </r>
       <r>     4.0408     0.0000   448.0000 </r>
       <r>     4.1538     0.0000   448.0000 </r>
       <r>     4.2668     0.0000   448.0000 </r>
       <r>     4.3798     2.2069   448.2494 </r>
       <r>     4.4928     0.0057   448.2500 </r>
       <r>     4.6058     0.0000   448.2500 </r>
       <r>     4.7187     0.0000   448.2500 </r>
       <r>     4.8317     0.0000   448.2500 </r>
       <r>     4.9447     0.0000   448.2500 </r>
       <r>     5.0577    13.1863   449.7399 </r>
       <r>     5.1707     0.0897   449.7500 </r>
       <r>     5.2837     0.0000   449.7500 </r>
       <r>     5.3967     0.0000   449.7500 </r>
       <r>     5.5097     0.5618   449.8135 </r>
       <r>     5.6226    25.9901   452.7500 </r>
       <r>     5.7356     0.0000   452.7500 </r>
       <r>     5.8486    15.4616   454.4969 </r>
       <r>     5.9616     2.2397   454.7500 </r>
       <r>     6.0746     0.0000   454.7500 </r>
       <r>     6.1876     0.0000   454.7500 </r>
       <r>     6.3006     0.0000   454.7500 </r>
       <r>     6.4135    13.3838   456.2622 </r>
       <r>     6.5265     8.7425   457.2500 </r>
       <r>     6.6395    27.2275   460.3263 </r>
       <r>     6.7525    78.4074   469.1853 </r>
       <r>     6.8655    56.8757   475.6115 </r>
       <r>     6.9785    12.6753   477.0436 </r>
       <r>     7.0915     4.0394   477.5000 </r>
       <r>     7.2044     2.8816   477.8256 </r>
       <r>     7.3174     3.7802   478.2527 </r>
       <r>     7.4304    78.9294   487.1706 </r>
       <r>     7.5434   162.1361   505.4898 </r>
       <r>     7.6564    11.1524   506.7501 </r>
       <r>     7.7694    26.5493   509.7498 </r>
       <r>     7.8824     0.0117   509.7513 </r>
       <r>     7.9953    53.0905   515.7498 </r>
       <r>     8.1083     0.0002   515.7500 </r>
       <r>     8.2213    13.3463   517.2580 </r>
       <r>     8.3343    92.7028   527.7323 </r>
       <r>     8.4473     0.1556   527.7500 </r>
       <r>     8.5603   128.6893   542.2901 </r>
       <r>     8.6733    30.6222   545.7500 </r>
       <r>     8.7863     0.0000   545.7500 </r>
       <r>     8.8992    65.2006   553.1168 </r>
       <r>     9.0122   130.2256   567.8305 </r>
       <r>     9.1252    14.7740   569.5000 </r>
       <r>     9.2382    11.1087   570.7551 </r>
       <r>     9.3512    33.1445   574.5000 </r>
       <r>     9.4642     0.2083   574.5235 </r>
       <r>     9.5772    13.0676   576.0000 </r>
       <r>     9.6901     0.0000   576.0000 </r>
       <r>     9.8031     0.0000   576.0000 </r>
       <r>     9.9161     0.0000   576.0000 </r>
       <r>    10.0291     0.0000   576.0000 </r>
       <r>    10.1421     0.0000   576.0000 </r>
       <r>    10.2551     0.0000   576.0000 </r>
       <r>    10.3681     0.0000   576.0000 </r>
       <r>    10.4810     0.0000   576.0000 </r>
       <r>    10.5940     0.0000   576.0000 </r>
       <r>    10.7070     0.0000   576.0000 </r>
       <r>    10.8200     0.0000   576.0000 </r>
       <r>    10.9330     0.0000   576.0000 </r>
       <r>    11.0460     0.0000   576.0000 </r>
      </set>
     </set>
    </array>
   </total>
  </dos>
 </calculation>
 <structure name="finalpos" >
  <crystal>
   <varray name="basis" >
    <v>      11.20400236       0.00000000       0.00000000 </v>
    <v>       0.00000000      11.20400236       0.00000000 </v>
    <v>       0.00000000       0.00000000      11.20400236 </v>
   </varray>
   <i name="volume">   1406.43470641 </i>
   <varray name="rec_basis" >
    <v>       0.08925382       0.00000000       0.00000000 </v>
    <v>       0.00000000       0.08925382       0.00000000 </v>
    <v>       0.00000000       0.00000000       0.08925382 </v>
   </varray>
  </crystal>
  <varray name="positions" >
   <v>       0.99732239       0.00000000       0.00000000 </v>
   <v>       0.25000000       0.25000000       0.00000000 </v>
   <v>       0.25000000       0.00000000       0.25000000 </v>
   <v>       0.00000000       0.25000000       0.25000000 </v>
   <v>       0.00000000       0.00000000       0.50000000 </v>
   <v>       0.25000000       0.25000000       0.50000000 </v>
   <v>       0.25000000       0.00000000       0.75000000 </v>
   <v>       0.00000000       0.25000000       0.75000000 </v>
   <v>       0.00000000       0.50000000       0.00000000 </v>
   <v>       0.25000000       0.75000000       0.00000000 </v>
   <v>       0.25000000       0.50000000       0.25000000 </v>
   <v>       0.00000000       0.75000000       0.25000000 </v>
   <v>       0.00000000       0.50000000       0.50000000 </v>
   <v>       0.25000000       0.75000000       0.50000000 </v>
   <v>       0.25000000       0.50000000       0.75000000 </v>
   <v>       0.00000000       0.75000000       0.75000000 </v>
   <v>       0.50000000       0.00000000       0.00000000 </v>
   <v>       0.75000000       0.25000000       0.00000000 </v>
   <v>       0.75000000       0.00000000       0.25000000 </v>
   <v>       0.50000000       0.25000000       0.25000000 </v>
   <v>       0.50000000       0.00000000       0.50000000 </v>
   <v>       0.75000000       0.25000000       0.50000000 </v>
   <v>       0.75000000       0.00000000       0.75000000 </v>
   <v>       0.50000000       0.25000000       0.75000000 </v>
   <v>       0.50000000       0.50000000       0.00000000 </v>
   <v>       0.75000000       0.75000000       0.00000000 </v>
   <v>       0.75000000       0.50000000       0.25000000 </v>
   <v>       0.50000000       0.75000000       0.25000000 </v>
   <v>       0.50000000       0.50000000       0.50000000 </v>
   <v>       0.75000000       0.75000000       0.50000000 </v>
   <v>       0.75000000       0.50000000       0.75000000 </v>
   <v>       0.50000000       0.75000000       0.75000000 </v>
   <v>       0.25000000       0.25000000       0.25000000 </v>
   <v>       0.00000000       0.00000000       0.25000000 </v>
   <v>       0.00000000       0.25000000       0.00000000 </v>
   <v>       0.24732239       0.00000000       0.00000000 </v>
   <v>       0.25000000       0.25000000       0.75000000 </v>
   <v>       0.00000000       0.00000000       0.75000000 </v>
   <v>       0.00000000       0.25000000       0.50000000 </v>
   <v>       0.25000000       0.00000000       0.50000000 </v>
   <v>       0.25000000       0.75000000       0.25000000 </v>
   <v>       0.00000000       0.50000000       0.25000000 </v>
   <v>       0.00000000       0.75000000       0.00000000 </v>
   <v>       0.25000000       0.50000000       0.00000000 </v>
   <v>       0.25000000       0.75000000       0.75000000 </v>
   <v>       0.00000000       0.50000000       0.75000000 </v>
   <v>       0.00000000       0.75000000       0.50000000 </v>
   <v>       0.25000000       0.50000000       0.50000000 </v>
   <v>       0.75000000       0.25000000       0.25000000 </v>
   <v>       0.50000000       0.00000000       0.25000000 </v>
   <v>       0.50000000       0.25000000       0.00000000 </v>
   <v>       0.75000000       0.00000000       0.00000000 </v>
   <v>       0.75000000       0.25000000       0.75000000 </v>
   <v>       0.50000000       0.00000000       0.75000000 </v>
   <v>       0.50000000       0.25000000       0.50000000 </v>
   <v>       0.75000000       0.00000000       0.50000000 </v>
   <v>       0.75000000       0.75000000       0.25000000 </v>
   <v>       0.50000000       0.50000000       0.25000000 </v>
   <v>       0.50000000       0.75000000       0.00000000 </v>
   <v>       0.75000000       0.50000000       0.00000000 </v>
   <v>       0.75000000       0.75000000       0.75000000 </v>
   <v>       0.50000000       0.50000000       0.75000000 </v>
   <v>       0.50000000       0.75000000       0.50000000 </v>
   <v>       0.75000000       0.50000000       0.50000000 </v>
  </varray>
 </structure>
</modeling>
