  64  64   0   0
  0.2197554E+02  0.1120400E-08  0.1120400E-08  0.1120400E-08  0.5000000E-15
  1.000000000000000E-004
  CAR 
 unknown system                          
     11.06165908    -22.84664047  301     -0.55193352      1.00000000
    -22.847  0.0000E+00  0.0000E+00
    -22.734  0.0000E+00  0.0000E+00
    -22.621  0.0000E+00  0.0000E+00
    -22.508  0.0000E+00  0.0000E+00
    -22.395  0.0000E+00  0.0000E+00
    -22.282  0.0000E+00  0.0000E+00
    -22.168  0.0000E+00  0.0000E+00
    -22.055  0.0000E+00  0.0000E+00
    -21.942  0.0000E+00  0.0000E+00
    -21.829  0.0000E+00  0.0000E+00
    -21.716  0.0000E+00  0.0000E+00
    -21.603  0.0000E+00  0.0000E+00
    -21.490  0.0000E+00  0.0000E+00
    -21.377  0.4138E-05  0.4677E-06
    -21.264  0.1426E+04  0.1611E+03
    -21.151  0.2731E+03  0.1920E+03
    -21.038  0.0000E+00  0.1920E+03
    -20.925  0.0000E+00  0.1920E+03
    -20.812  0.0000E+00  0.1920E+03
    -20.699  0.0000E+00  0.1920E+03
    -20.586  0.0000E+00  0.1920E+03
    -20.473  0.0000E+00  0.1920E+03
    -20.360  0.0000E+00  0.1920E+03
    -20.247  0.0000E+00  0.1920E+03
    -20.134  0.0000E+00  0.1920E+03
    -20.021  0.0000E+00  0.1920E+03
    -19.908  0.0000E+00  0.1920E+03
    -19.795  0.0000E+00  0.1920E+03
    -19.682  0.0000E+00  0.1920E+03
    -19.569  0.0000E+00  0.1920E+03
    -19.456  0.0000E+00  0.1920E+03
    -19.343  0.0000E+00  0.1920E+03
    -19.230  0.0000E+00  0.1920E+03
    -19.117  0.0000E+00  0.1920E+03
    -19.004  0.0000E+00  0.1920E+03
    -18.891  0.0000E+00  0.1920E+03
    -18.778  0.0000E+00  0.1920E+03
    -18.665  0.0000E+00  0.1920E+03
    -18.552  0.0000E+00  0.1920E+03
    -18.439  0.0000E+00  0.1920E+03
    -18.326  0.0000E+00  0.1920E+03
    -18.213  0.0000E+00  0.1920E+03
    -18.099  0.0000E+00  0.1920E+03
    -17.986  0.0000E+00  0.1920E+03
    -17.873  0.0000E+00  0.1920E+03
    -17.760  0.0000E+00  0.1920E+03
    -17.647  0.0000E+00  0.1920E+03
    -17.534  0.0000E+00  0.1920E+03
    -17.421  0.0000E+00  0.1920E+03
    -17.308  0.0000E+00  0.1920E+03
    -17.195  0.0000E+00  0.1920E+03
    -17.082  0.0000E+00  0.1920E+03
    -16.969  0.0000E+00  0.1920E+03
    -16.856  0.0000E+00  0.1920E+03
    -16.743  0.0000E+00  0.1920E+03
    -16.630  0.0000E+00  0.1920E+03
    -16.517  0.0000E+00  0.1920E+03
    -16.404  0.0000E+00  0.1920E+03
    -16.291  0.0000E+00  0.1920E+03
    -16.178  0.0000E+00  0.1920E+03
    -16.065  0.0000E+00  0.1920E+03
    -15.952  0.0000E+00  0.1920E+03
    -15.839  0.0000E+00  0.1920E+03
    -15.726  0.0000E+00  0.1920E+03
    -15.613  0.0000E+00  0.1920E+03
    -15.500  0.0000E+00  0.1920E+03
    -15.387  0.0000E+00  0.1920E+03
    -15.274  0.0000E+00  0.1920E+03
    -15.161  0.0000E+00  0.1920E+03
    -15.048  0.0000E+00  0.1920E+03
    -14.935  0.0000E+00  0.1920E+03
    -14.822  0.0000E+00  0.1920E+03
    -14.709  0.0000E+00  0.1920E+03
    -14.596  0.0000E+00  0.1920E+03
    -14.483  0.0000E+00  0.1920E+03
    -14.370  0.0000E+00  0.1920E+03
    -14.257  0.0000E+00  0.1920E+03
    -14.144  0.0000E+00  0.1920E+03
    -14.030  0.0000E+00  0.1920E+03
    -13.917  0.0000E+00  0.1920E+03
    -13.804  0.0000E+00  0.1920E+03
    -13.691  0.0000E+00  0.1920E+03
    -13.578  0.0000E+00  0.1920E+03
    -13.465  0.3696E-13  0.1920E+03
    -13.352  0.1456E+01  0.1922E+03
    -13.239  0.2205E+02  0.1947E+03
    -13.126  0.4778E+02  0.2001E+03
    -13.013  0.1327E+03  0.2151E+03
    -12.900  0.3600E+03  0.2557E+03
    -12.787  0.2237E+01  0.2560E+03
    -12.674  0.0000E+00  0.2560E+03
    -12.561  0.0000E+00  0.2560E+03
    -12.448  0.0000E+00  0.2560E+03
    -12.335  0.0000E+00  0.2560E+03
    -12.222  0.0000E+00  0.2560E+03
    -12.109  0.0000E+00  0.2560E+03
    -11.996  0.0000E+00  0.2560E+03
    -11.883  0.0000E+00  0.2560E+03
    -11.770  0.0000E+00  0.2560E+03
    -11.657  0.0000E+00  0.2560E+03
    -11.544  0.0000E+00  0.2560E+03
    -11.431  0.0000E+00  0.2560E+03
    -11.318  0.0000E+00  0.2560E+03
    -11.205  0.0000E+00  0.2560E+03
    -11.092  0.0000E+00  0.2560E+03
    -10.979  0.0000E+00  0.2560E+03
    -10.866  0.0000E+00  0.2560E+03
    -10.753  0.0000E+00  0.2560E+03
    -10.640  0.0000E+00  0.2560E+03
    -10.527  0.0000E+00  0.2560E+03
    -10.414  0.0000E+00  0.2560E+03
    -10.301  0.0000E+00  0.2560E+03
    -10.188  0.0000E+00  0.2560E+03
    -10.075  0.0000E+00  0.2560E+03
     -9.961  0.0000E+00  0.2560E+03
     -9.848  0.0000E+00  0.2560E+03
     -9.735  0.0000E+00  0.2560E+03
     -9.622  0.0000E+00  0.2560E+03
     -9.509  0.0000E+00  0.2560E+03
     -9.396  0.0000E+00  0.2560E+03
     -9.283  0.0000E+00  0.2560E+03
     -9.170  0.0000E+00  0.2560E+03
     -9.057  0.0000E+00  0.2560E+03
     -8.944  0.0000E+00  0.2560E+03
     -8.831  0.0000E+00  0.2560E+03
     -8.718  0.0000E+00  0.2560E+03
     -8.605  0.0000E+00  0.2560E+03
     -8.492  0.0000E+00  0.2560E+03
     -8.379  0.0000E+00  0.2560E+03
     -8.266  0.0000E+00  0.2560E+03
     -8.153  0.0000E+00  0.2560E+03
     -8.040  0.0000E+00  0.2560E+03
     -7.927  0.0000E+00  0.2560E+03
     -7.814  0.0000E+00  0.2560E+03
     -7.701  0.0000E+00  0.2560E+03
     -7.588  0.0000E+00  0.2560E+03
     -7.475  0.0000E+00  0.2560E+03
     -7.362  0.0000E+00  0.2560E+03
     -7.249  0.0000E+00  0.2560E+03
     -7.136  0.0000E+00  0.2560E+03
     -7.023  0.0000E+00  0.2560E+03
     -6.910  0.0000E+00  0.2560E+03
     -6.797  0.0000E+00  0.2560E+03
     -6.684  0.0000E+00  0.2560E+03
     -6.571  0.0000E+00  0.2560E+03
     -6.458  0.0000E+00  0.2560E+03
     -6.345  0.0000E+00  0.2560E+03
     -6.232  0.0000E+00  0.2560E+03
     -6.119  0.0000E+00  0.2560E+03
     -6.006  0.0000E+00  0.2560E+03
     -5.892  0.0000E+00  0.2560E+03
     -5.779  0.0000E+00  0.2560E+03
     -5.666  0.0000E+00  0.2560E+03
     -5.553  0.0000E+00  0.2560E+03
     -5.440  0.0000E+00  0.2560E+03
     -5.327  0.0000E+00  0.2560E+03
     -5.214  0.0000E+00  0.2560E+03
     -5.101  0.0000E+00  0.2560E+03
     -4.988  0.0000E+00  0.2560E+03
     -4.875  0.0000E+00  0.2560E+03
     -4.762  0.0000E+00  0.2560E+03
     -4.649  0.0000E+00  0.2560E+03
     -4.536  0.0000E+00  0.2560E+03
     -4.423  0.0000E+00  0.2560E+03
     -4.310  0.0000E+00  0.2560E+03
     -4.197  0.0000E+00  0.2560E+03
     -4.084  0.0000E+00  0.2560E+03
     -3.971  0.0000E+00  0.2560E+03
     -3.858  0.0000E+00  0.2560E+03
     -3.745  0.0000E+00  0.2560E+03
     -3.632  0.0000E+00  0.2560E+03
     -3.519  0.0000E+00  0.2560E+03
     -3.406  0.0000E+00  0.2560E+03
     -3.293  0.0000E+00  0.2560E+03
     -3.180  0.0000E+00  0.2560E+03
     -3.067  0.0000E+00  0.2560E+03
     -2.954  0.0000E+00  0.2560E+03
     -2.841  0.0000E+00  0.2560E+03
     -2.728  0.2216E+00  0.2560E+03
     -2.615  0.8626E+01  0.2570E+03
     -2.502  0.3053E+02  0.2605E+03
     -2.389  0.7991E+02  0.2695E+03
     -2.276  0.8569E+02  0.2792E+03
     -2.163  0.1528E+03  0.2964E+03
     -2.050  0.6906E+02  0.3043E+03
     -1.937  0.5846E+02  0.3109E+03
     -1.823  0.6623E+02  0.3183E+03
     -1.710  0.6551E+02  0.3257E+03
     -1.597  0.1029E-08  0.3258E+03
     -1.484  0.8558E+02  0.3354E+03
     -1.371  0.1853E+03  0.3564E+03
     -1.258  0.2177E+02  0.3588E+03
     -1.145  0.2607E+03  0.3883E+03
     -1.032  0.1323E+03  0.4033E+03
     -0.919  0.2624E+03  0.4329E+03
     -0.806  0.5975E+02  0.4397E+03
     -0.693  0.6728E+02  0.4473E+03
     -0.580  0.6499E+01  0.4480E+03
     -0.467  0.0000E+00  0.4480E+03
     -0.354  0.0000E+00  0.4480E+03
     -0.241  0.0000E+00  0.4480E+03
     -0.128  0.0000E+00  0.4480E+03
     -0.015  0.0000E+00  0.4480E+03
      0.098  0.0000E+00  0.4480E+03
      0.211  0.0000E+00  0.4480E+03
      0.324  0.0000E+00  0.4480E+03
      0.437  0.0000E+00  0.4480E+03
      0.550  0.0000E+00  0.4480E+03
      0.663  0.0000E+00  0.4480E+03
      0.776  0.0000E+00  0.4480E+03
      0.889  0.0000E+00  0.4480E+03
      1.002  0.0000E+00  0.4480E+03
      1.115  0.0000E+00  0.4480E+03
      1.228  0.0000E+00  0.4480E+03
      1.341  0.0000E+00  0.4480E+03
      1.454  0.0000E+00  0.4480E+03
      1.567  0.0000E+00  0.4480E+03
      1.680  0.0000E+00  0.4480E+03
      1.793  0.0000E+00  0.4480E+03
      1.906  0.0000E+00  0.4480E+03
      2.019  0.0000E+00  0.4480E+03
      2.132  0.0000E+00  0.4480E+03
      2.246  0.0000E+00  0.4480E+03
      2.359  0.0000E+00  0.4480E+03
      2.472  0.0000E+00  0.4480E+03
      2.585  0.0000E+00  0.4480E+03
      2.698  0.0000E+00  0.4480E+03
      2.811  0.0000E+00  0.4480E+03
      2.924  0.0000E+00  0.4480E+03
      3.037  0.0000E+00  0.4480E+03
      3.150  0.0000E+00  0.4480E+03
      3.263  0.0000E+00  0.4480E+03
      3.376  0.0000E+00  0.4480E+03
      3.489  0.0000E+00  0.4480E+03
      3.602  0.0000E+00  0.4480E+03
      3.715  0.0000E+00  0.4480E+03
      3.828  0.0000E+00  0.4480E+03
      3.941  0.0000E+00  0.4480E+03
      4.054  0.0000E+00  0.4480E+03
      4.167  0.0000E+00  0.4480E+03
      4.280  0.2208E-04  0.4480E+03
      4.393  0.2212E+01  0.4482E+03
      4.506  0.0000E+00  0.4482E+03
      4.619  0.0000E+00  0.4482E+03
      4.732  0.0000E+00  0.4482E+03
      4.845  0.0000E+00  0.4482E+03
      4.958  0.4189E-04  0.4483E+03
      5.071  0.1327E+02  0.4497E+03
      5.184  0.0000E+00  0.4498E+03
      5.297  0.0000E+00  0.4498E+03
      5.410  0.0000E+00  0.4498E+03
      5.523  0.3431E+01  0.4501E+03
      5.636  0.2311E+02  0.4527E+03
      5.749  0.1048E-06  0.4528E+03
      5.862  0.1741E+02  0.4547E+03
      5.975  0.2813E+00  0.4548E+03
      6.088  0.0000E+00  0.4548E+03
      6.201  0.0000E+00  0.4548E+03
      6.314  0.1055E-02  0.4548E+03
      6.428  0.1427E+02  0.4564E+03
      6.541  0.7845E+01  0.4573E+03
      6.654  0.4485E+02  0.4623E+03
      6.767  0.6130E+02  0.4692E+03
      6.880  0.5944E+02  0.4760E+03
      6.993  0.1271E+02  0.4774E+03
      7.106  0.8493E+00  0.4775E+03
      7.219  0.5304E+01  0.4781E+03
      7.332  0.1743E+01  0.4783E+03
      7.445  0.8202E+02  0.4876E+03
      7.558  0.1680E+03  0.5066E+03
      7.671  0.1736E+01  0.5068E+03
      7.784  0.2651E+02  0.5097E+03
      7.897  0.2852E+00  0.5098E+03
      8.010  0.5280E+02  0.5157E+03
      8.123  0.8952E-02  0.5158E+03
      8.236  0.1424E+02  0.5174E+03
      8.349  0.9192E+02  0.5277E+03
      8.462  0.5140E-05  0.5278E+03
      8.575  0.1528E+03  0.5450E+03
      8.688  0.6485E+01  0.5458E+03
      8.801  0.1733E-05  0.5458E+03
      8.914  0.8492E+02  0.5553E+03
      9.027  0.1226E+03  0.5692E+03
      9.140  0.2595E+01  0.5695E+03
      9.253  0.2344E+02  0.5721E+03
      9.366  0.2080E+02  0.5745E+03
      9.479  0.1387E+01  0.5747E+03
      9.592  0.1188E+02  0.5760E+03
      9.705  0.0000E+00  0.5760E+03
      9.818  0.0000E+00  0.5760E+03
      9.931  0.0000E+00  0.5760E+03
     10.044  0.0000E+00  0.5760E+03
     10.157  0.0000E+00  0.5760E+03
     10.270  0.0000E+00  0.5760E+03
     10.383  0.0000E+00  0.5760E+03
     10.497  0.0000E+00  0.5760E+03
     10.610  0.0000E+00  0.5760E+03
     10.723  0.0000E+00  0.5760E+03
     10.836  0.0000E+00  0.5760E+03
     10.949  0.0000E+00  0.5760E+03
     11.062  0.0000E+00  0.5760E+03
