       N       E                     dE             d eps       ncg     rms          rms(c)
DAV:   1     0.432180453612E+04    0.43218E+04   -0.17165E+05  4608   0.125E+03
DAV:   2     0.363648278968E+03   -0.39582E+04   -0.37662E+04  5120   0.368E+02
DAV:   3    -0.206194487234E+03   -0.56984E+03   -0.56559E+03  5600   0.156E+02
DAV:   4    -0.228192776154E+03   -0.21998E+02   -0.21897E+02  5536   0.331E+01
DAV:   5    -0.229003520850E+03   -0.81074E+00   -0.80935E+00  5600   0.616E+00    0.106E+01
DAV:   6    -0.224139247371E+03    0.48643E+01   -0.94728E+00  5728   0.527E+00    0.776E+00
DAV:   7    -0.223777791892E+03    0.36146E+00   -0.20697E+00  6208   0.236E+00    0.533E+00
DAV:   8    -0.223903039650E+03   -0.12525E+00   -0.26607E-01  5344   0.122E+00    0.142E+00
DAV:   9    -0.223897466586E+03    0.55731E-02   -0.11351E-02  5696   0.257E-01    0.600E-01
DAV:  10    -0.223901815174E+03   -0.43486E-02   -0.18853E-02  5344   0.223E-01    0.298E-01
DAV:  11    -0.223901027374E+03    0.78780E-03   -0.18018E-03  5664   0.811E-02    0.800E-02
DAV:  12    -0.223900994805E+03    0.32569E-04   -0.15103E-04  6112   0.229E-02    0.968E-03
DAV:  13    -0.223901000890E+03   -0.60849E-05   -0.14105E-05  5440   0.634E-03    0.226E-03
DAV:  14    -0.223901000234E+03    0.65567E-06   -0.13087E-06  6272   0.242E-03    0.914E-03
DAV:  15    -0.223901001360E+03   -0.11256E-05   -0.53196E-07  4672   0.138E-03    0.325E-03
DAV:  16    -0.223901001934E+03   -0.57491E-06   -0.99363E-08  5376   0.658E-04    0.291E-04
DAV:  17    -0.223901001926E+03    0.82946E-08   -0.45548E-09  3520   0.446E-04
   1 F= -.22390100E+03 E0= -.22390100E+03  d E =-.588513E-16
