<?xml version="1.0" encoding="ISO-8859-1"?>
<modeling>
 <generator>
  <i name="program" type="string">vasp </i>
  <i name="version" type="string">6.3.2  </i>
  <i name="subversion" type="string">27Jun22 (build Oct 14 2022 12:13:54) complex                          parallel </i>
  <i name="platform" type="string">LinuxIFC </i>
  <i name="date" type="string">2025 08 28 </i>
  <i name="time" type="string">21:57:06 </i>
 </generator>
 <incar>
  <i type="string" name="PREC">Accurate</i>
  <i type="int" name="IALGO">    38</i>
  <i type="logical" name="ADDGRID"> T  </i>
  <i type="int" name="NELMIN">     5</i>
  <i type="int" name="IBRION">    -1</i>
  <i name="EDIFF">      0.00000001</i>
  <i name="ENCUT">    341.21360000</i>
  <i type="logical" name="LREAL"> F  </i>
  <i type="int" name="ISMEAR">     0</i>
  <i name="SIGMA">      0.02000000</i>
  <i type="logical" name="LWAVE"> F  </i>
  <i type="logical" name="LCHARG"> F  </i>
  <i type="string" name="GGA">PS</i>
 </incar>
 <primitive_cell>
  <structure name="primitive_cell" >
   <crystal>
    <varray name="basis" >
     <v>      11.20400236       0.00000000       0.00000000 </v>
     <v>       0.00000000      11.20400236       0.00000000 </v>
     <v>       0.00000000       0.00000000      11.20400236 </v>
    </varray>
    <i name="volume">   1406.43470641 </i>
    <varray name="rec_basis" >
     <v>       0.08925382       0.00000000       0.00000000 </v>
     <v>       0.00000000       0.08925382       0.00000000 </v>
     <v>       0.00000000       0.00000000       0.08925382 </v>
    </varray>
   </crystal>
   <varray name="positions" >
    <v>       0.00267761       0.00000000       0.00000000 </v>
    <v>       0.25000000       0.25267761       0.00000000 </v>
    <v>       0.25000000       0.00000000       0.25000000 </v>
    <v>       0.00000000       0.25000000       0.25000000 </v>
    <v>       0.00000000       0.00000000       0.50000000 </v>
    <v>       0.25000000       0.25000000       0.50000000 </v>
    <v>       0.25000000       0.00000000       0.75000000 </v>
    <v>       0.00000000       0.25000000       0.75000000 </v>
    <v>       0.00000000       0.50000000       0.00000000 </v>
    <v>       0.25000000       0.75000000       0.00000000 </v>
    <v>       0.25000000       0.50000000       0.25000000 </v>
    <v>       0.00000000       0.75000000       0.25000000 </v>
    <v>       0.00000000       0.50000000       0.50000000 </v>
    <v>       0.25000000       0.75000000       0.50000000 </v>
    <v>       0.25000000       0.50000000       0.75000000 </v>
    <v>       0.00000000       0.75000000       0.75000000 </v>
    <v>       0.50000000       0.00000000       0.00000000 </v>
    <v>       0.75000000       0.25000000       0.00000000 </v>
    <v>       0.75000000       0.00000000       0.25000000 </v>
    <v>       0.50000000       0.25000000       0.25000000 </v>
    <v>       0.50000000       0.00000000       0.50000000 </v>
    <v>       0.75000000       0.25000000       0.50000000 </v>
    <v>       0.75000000       0.00000000       0.75000000 </v>
    <v>       0.50000000       0.25000000       0.75000000 </v>
    <v>       0.50000000       0.50000000       0.00000000 </v>
    <v>       0.75000000       0.75000000       0.00000000 </v>
    <v>       0.75000000       0.50000000       0.25000000 </v>
    <v>       0.50000000       0.75000000       0.25000000 </v>
    <v>       0.50000000       0.50000000       0.50000000 </v>
    <v>       0.75000000       0.75000000       0.50000000 </v>
    <v>       0.75000000       0.50000000       0.75000000 </v>
    <v>       0.50000000       0.75000000       0.75000000 </v>
    <v>       0.25000000       0.25000000       0.25000000 </v>
    <v>       0.00000000       0.00000000       0.25000000 </v>
    <v>       0.00000000       0.25000000       0.00000000 </v>
    <v>       0.25000000       0.00000000       0.00000000 </v>
    <v>       0.25000000       0.25000000       0.75000000 </v>
    <v>       0.00000000       0.00000000       0.75000000 </v>
    <v>       0.00000000       0.25000000       0.50000000 </v>
    <v>       0.25000000       0.00000000       0.50000000 </v>
    <v>       0.25000000       0.75000000       0.25000000 </v>
    <v>       0.00000000       0.50000000       0.25000000 </v>
    <v>       0.00000000       0.75000000       0.00000000 </v>
    <v>       0.25000000       0.50000000       0.00000000 </v>
    <v>       0.25000000       0.75000000       0.75000000 </v>
    <v>       0.00000000       0.50000000       0.75000000 </v>
    <v>       0.00000000       0.75000000       0.50000000 </v>
    <v>       0.25000000       0.50000000       0.50000000 </v>
    <v>       0.75000000       0.25000000       0.25000000 </v>
    <v>       0.50000000       0.00000000       0.25000000 </v>
    <v>       0.50000000       0.25000000       0.00000000 </v>
    <v>       0.75000000       0.00000000       0.00000000 </v>
    <v>       0.75000000       0.25000000       0.75000000 </v>
    <v>       0.50000000       0.00000000       0.75000000 </v>
    <v>       0.50000000       0.25000000       0.50000000 </v>
    <v>       0.75000000       0.00000000       0.50000000 </v>
    <v>       0.75000000       0.75000000       0.25000000 </v>
    <v>       0.50000000       0.50000000       0.25000000 </v>
    <v>       0.50000000       0.75000000       0.00000000 </v>
    <v>       0.75000000       0.50000000       0.00000000 </v>
    <v>       0.75000000       0.75000000       0.75000000 </v>
    <v>       0.50000000       0.50000000       0.75000000 </v>
    <v>       0.50000000       0.75000000       0.50000000 </v>
    <v>       0.75000000       0.50000000       0.50000000 </v>
   </varray>
  </structure>
  <varray name="primitive_index" >
   <v type="int" >        1 </v>
   <v type="int" >        2 </v>
   <v type="int" >        3 </v>
   <v type="int" >        4 </v>
   <v type="int" >        5 </v>
   <v type="int" >        6 </v>
   <v type="int" >        7 </v>
   <v type="int" >        8 </v>
   <v type="int" >        9 </v>
   <v type="int" >       10 </v>
   <v type="int" >       11 </v>
   <v type="int" >       12 </v>
   <v type="int" >       13 </v>
   <v type="int" >       14 </v>
   <v type="int" >       15 </v>
   <v type="int" >       16 </v>
   <v type="int" >       17 </v>
   <v type="int" >       18 </v>
   <v type="int" >       19 </v>
   <v type="int" >       20 </v>
   <v type="int" >       21 </v>
   <v type="int" >       22 </v>
   <v type="int" >       23 </v>
   <v type="int" >       24 </v>
   <v type="int" >       25 </v>
   <v type="int" >       26 </v>
   <v type="int" >       27 </v>
   <v type="int" >       28 </v>
   <v type="int" >       29 </v>
   <v type="int" >       30 </v>
   <v type="int" >       31 </v>
   <v type="int" >       32 </v>
   <v type="int" >       33 </v>
   <v type="int" >       34 </v>
   <v type="int" >       35 </v>
   <v type="int" >       36 </v>
   <v type="int" >       37 </v>
   <v type="int" >       38 </v>
   <v type="int" >       39 </v>
   <v type="int" >       40 </v>
   <v type="int" >       41 </v>
   <v type="int" >       42 </v>
   <v type="int" >       43 </v>
   <v type="int" >       44 </v>
   <v type="int" >       45 </v>
   <v type="int" >       46 </v>
   <v type="int" >       47 </v>
   <v type="int" >       48 </v>
   <v type="int" >       49 </v>
   <v type="int" >       50 </v>
   <v type="int" >       51 </v>
   <v type="int" >       52 </v>
   <v type="int" >       53 </v>
   <v type="int" >       54 </v>
   <v type="int" >       55 </v>
   <v type="int" >       56 </v>
   <v type="int" >       57 </v>
   <v type="int" >       58 </v>
   <v type="int" >       59 </v>
   <v type="int" >       60 </v>
   <v type="int" >       61 </v>
   <v type="int" >       62 </v>
   <v type="int" >       63 </v>
   <v type="int" >       64 </v>
  </varray>
 </primitive_cell>
 <kpoints>
  <generation param="Gamma">
   <v type="int" name="divisions">       2        2        2 </v>
   <v name="usershift">      0.00000000       0.00000000       0.00000000 </v>
   <v name="genvec1">      0.50000000       0.00000000       0.00000000 </v>
   <v name="genvec2">      0.00000000       0.50000000       0.00000000 </v>
   <v name="genvec3">      0.00000000       0.00000000       0.50000000 </v>
   <v name="shift">      0.00000000       0.00000000       0.00000000 </v>
  </generation>
  <varray name="kpointlist" >
   <v>       0.00000000       0.00000000       0.00000000 </v>
   <v>       0.50000000       0.00000000       0.00000000 </v>
   <v>       0.00000000       0.50000000       0.00000000 </v>
   <v>       0.00000000       0.00000000       0.50000000 </v>
   <v>       0.50000000       0.50000000       0.00000000 </v>
   <v>       0.00000000       0.50000000       0.50000000 </v>
   <v>       0.50000000       0.00000000       0.50000000 </v>
   <v>       0.50000000       0.50000000       0.50000000 </v>
  </varray>
  <varray name="weights" >
   <v>       0.12500000 </v>
   <v>       0.12500000 </v>
   <v>       0.12500000 </v>
   <v>       0.12500000 </v>
   <v>       0.12500000 </v>
   <v>       0.12500000 </v>
   <v>       0.12500000 </v>
   <v>       0.12500000 </v>
  </varray>
 </kpoints>
 <parameters>
  <separator name="general" >
   <i type="string" name="SYSTEM">unknown system</i>
   <i type="logical" name="LCOMPAT"> F  </i>
  </separator>
  <separator name="electronic" >
   <i type="string" name="PREC">accura</i>
   <i name="ENMAX">    341.21360000</i>
   <i name="ENAUG">    368.05600000</i>
   <i name="EDIFF">      0.00000001</i>
   <i type="int" name="IALGO">    38</i>
   <i type="int" name="IWAVPR">    10</i>
   <i type="int" name="NBANDS">   288</i>
   <i type="int" name="NBANDSLOW">    -1</i>
   <i type="int" name="NBANDSHIGH">    -1</i>
   <i name="NELECT">    448.00000000</i>
   <i type="int" name="TURBO">     0</i>
   <i type="int" name="IRESTART">     0</i>
   <i type="int" name="NREBOOT">     0</i>
   <i type="int" name="NMIN">     0</i>
   <i name="EREF">      0.00000000</i>
   <separator name="electronic smearing" >
    <i type="int" name="ISMEAR">     0</i>
    <i name="SIGMA">      0.02000000</i>
    <i name="KSPACING">      0.50000000</i>
    <i type="logical" name="KGAMMA"> T  </i>
    <i type="logical" name="KBLOWUP"> T  </i>
   </separator>
   <separator name="electronic projectors" >
    <i type="logical" name="LREAL"> F  </i>
    <v name="ROPT">      0.00000000      0.00000000</v>
    <i type="int" name="LMAXPAW">  -100</i>
    <i type="int" name="LMAXMIX">     2</i>
    <i type="logical" name="NLSPLINE"> F  </i>
   </separator>
   <separator name="electronic startup" >
    <i type="int" name="ISTART">     0</i>
    <i type="int" name="ICHARG">     2</i>
    <i type="int" name="INIWAV">     1</i>
   </separator>
   <separator name="electronic spin" >
    <i type="int" name="ISPIN">     1</i>
    <i type="logical" name="LNONCOLLINEAR"> F  </i>
    <v name="MAGMOM">      1.00000000      1.00000000      1.00000000      1.00000000      1.00000000      1.00000000      1.00000000      1.00000000      1.00000000      1.00000000      1.00000000      1.00000000      1.00000000      1.00000000      1.00000000      1.00000000      1.00000000      1.00000000      1.00000000      1.00000000
      1.00000000      1.00000000      1.00000000      1.00000000      1.00000000      1.00000000      1.00000000      1.00000000      1.00000000      1.00000000      1.00000000      1.00000000      1.00000000      1.00000000      1.00000000      1.00000000      1.00000000      1.00000000      1.00000000      1.00000000
      1.00000000      1.00000000      1.00000000      1.00000000      1.00000000      1.00000000      1.00000000      1.00000000      1.00000000      1.00000000      1.00000000      1.00000000      1.00000000      1.00000000      1.00000000      1.00000000      1.00000000      1.00000000      1.00000000      1.00000000
      1.00000000      1.00000000      1.00000000      1.00000000</v>
    <i name="NUPDOWN">     -1.00000000</i>
    <i type="logical" name="LSORBIT"> F  </i>
    <v name="SAXIS">      0.00000000      0.00000000      1.00000000</v>
    <i type="logical" name="LSPIRAL"> F  </i>
    <v name="QSPIRAL">      0.00000000      0.00000000      0.00000000</v>
    <i type="logical" name="LZEROZ"> F  </i>
   </separator>
   <separator name="electronic exchange-correlation" >
    <i type="logical" name="LASPH"> F  </i>
    <i type="logical" name="LMETAGGA"> F  </i>
   </separator>
   <separator name="electronic convergence" >
    <i type="int" name="NELM">    60</i>
    <i type="int" name="NELMDL">    -5</i>
    <i type="int" name="NELMIN">     5</i>
    <i name="ENINI">    341.21360000</i>
    <separator name="electronic convergence detail" >
     <i type="logical" name="LDIAG"> T  </i>
     <i type="logical" name="LSUBROT"> F  </i>
     <i name="WEIMIN">      0.00000000</i>
     <i name="EBREAK">      0.00000000</i>
     <i name="DEPER">      0.30000000</i>
     <i type="int" name="NRMM">     4</i>
     <i name="TIME">      0.40000000</i>
    </separator>
   </separator>
   <separator name="electronic mixer" >
    <i name="AMIX">      0.40000000</i>
    <i name="BMIX">      1.00000000</i>
    <i name="AMIN">      0.10000000</i>
    <i name="AMIX_MAG">      1.60000000</i>
    <i name="BMIX_MAG">      1.00000000</i>
    <separator name="electronic mixer details" >
     <i type="int" name="IMIX">     4</i>
     <i type="logical" name="MIXFIRST"> F  </i>
     <i type="int" name="MAXMIX">   -45</i>
     <i name="WC">    100.00000000</i>
     <i type="int" name="INIMIX">     1</i>
     <i type="int" name="MIXPRE">     1</i>
     <i type="int" name="MREMOVE">     5</i>
    </separator>
   </separator>
   <separator name="electronic dipolcorrection" >
    <i type="logical" name="LDIPOL"> F  </i>
    <i type="logical" name="LMONO"> F  </i>
    <i type="int" name="IDIPOL">     0</i>
    <i name="EPSILON">      1.00000000</i>
    <v name="DIPOL">   -100.00000000   -100.00000000   -100.00000000</v>
    <i name="EFIELD">      0.00000000</i>
   </separator>
  </separator>
  <separator name="grids" >
   <i type="int" name="NGX">    70</i>
   <i type="int" name="NGY">    70</i>
   <i type="int" name="NGZ">    70</i>
   <i type="int" name="NGXF">   140</i>
   <i type="int" name="NGYF">   140</i>
   <i type="int" name="NGZF">   140</i>
   <i type="logical" name="ADDGRID"> T  </i>
  </separator>
  <separator name="ionic" >
   <i type="int" name="NSW">     0</i>
   <i type="int" name="IBRION">    -1</i>
   <i type="int" name="MDALGO">     0</i>
   <i type="int" name="ISIF">     2</i>
   <i name="PSTRESS">      0.00000000</i>
   <i name="EDIFFG">      0.00000010</i>
   <i type="int" name="NFREE">     0</i>
   <i name="POTIM">      0.50000000</i>
   <i name="SMASS">     -3.00000000</i>
   <i name="SCALEE">      1.00000000</i>
  </separator>
  <separator name="ionic md" >
   <i name="TEBEG">      0.00010000</i>
   <i name="TEEND">      0.00010000</i>
   <i type="int" name="NBLOCK">     1</i>
   <i type="int" name="KBLOCK">     1</i>
   <i type="int" name="NPACO">   256</i>
   <i name="APACO">     10.00000000</i>
  </separator>
  <separator name="symmetry" >
   <i type="int" name="ISYM">     2</i>
   <i name="SYMPREC">      0.00001000</i>
  </separator>
  <separator name="dos" >
   <i type="int" name="LORBIT">     0</i>
   <v name="RWIGS">     -1.00000000     -1.00000000</v>
   <i type="int" name="NEDOS">   301</i>
   <i name="EMIN">     10.00000000</i>
   <i name="EMAX">    -10.00000000</i>
   <i name="EFERMI">      0.00000000</i>
  </separator>
  <separator name="writing" >
   <i type="int" name="NWRITE">     2</i>
   <i type="logical" name="LWAVE"> F  </i>
   <i type="logical" name="LDOWNSAMPLE"> F  </i>
   <i type="logical" name="LCHARG"> F  </i>
   <i type="logical" name="LPARD"> F  </i>
   <i type="logical" name="LVTOT"> F  </i>
   <i type="logical" name="LVHAR"> F  </i>
   <i type="logical" name="LELF"> F  </i>
   <i type="logical" name="LOPTICS"> F  </i>
   <v name="STM">      0.00000000      0.00000000      0.00000000      0.00000000      0.00000000      0.00000000      0.00000000</v>
  </separator>
  <separator name="performance" >
   <i type="int" name="NPAR">    32</i>
   <i type="int" name="NSIM">     4</i>
   <i type="int" name="NBLK">    -1</i>
   <i type="logical" name="LPLANE"> T  </i>
   <i type="logical" name="LSCALAPACK"> T  </i>
   <i type="logical" name="LSCAAWARE"> F  </i>
   <i type="logical" name="LSCALU"> F  </i>
   <i type="logical" name="LASYNC"> F  </i>
   <i type="logical" name="LORBITALREAL"> F  </i>
  </separator>
  <separator name="miscellaneous" >
   <i type="int" name="IDIOT">     3</i>
   <i type="int" name="PHON_NSTRUCT">    -1</i>
   <i type="logical" name="LMUSIC"> F  </i>
   <v name="POMASS">     22.99000000     35.45300000</v>
   <v name="DARWINR">      0.00000000      0.00000000</v>
   <v name="DARWINV">      1.00000000      1.00000000</v>
   <i type="logical" name="LCORR"> T  </i>
  </separator>
  <i type="logical" name="GGA_COMPAT"> T  </i>
  <i type="logical" name="LBERRY"> F  </i>
  <i type="int" name="ICORELEVEL">     0</i>
  <i type="logical" name="LDAU"> F  </i>
  <i type="int" name="I_CONSTRAINED_M">     0</i>
  <separator name="electronic exchange-correlation" >
   <i type="string" name="GGA">PS</i>
   <i type="int" name="VOSKOWN">     0</i>
   <i type="logical" name="LHFCALC"> F  </i>
   <i type="string" name="PRECFOCK"></i>
   <i type="logical" name="LSYMGRAD"> F  </i>
   <i type="logical" name="LHFONE"> F  </i>
   <i type="logical" name="LRHFCALC"> F  </i>
   <i type="logical" name="LTHOMAS"> F  </i>
   <i type="logical" name="LMODELHF"> F  </i>
   <i type="logical" name="LFOCKACE"> F  </i>
   <i name="ENCUT4O">     -1.00000000</i>
   <i type="int" name="EXXOEP">     0</i>
   <i type="int" name="FOURORBIT">     0</i>
   <i name="AEXX">      0.00000000</i>
   <i name="HFALPHA">      0.00000000</i>
   <i name="MCALPHA">      0.00000000</i>
   <i name="ALDAX">      1.00000000</i>
   <i name="AGGAX">      1.00000000</i>
   <i name="ALDAC">      1.00000000</i>
   <i name="AGGAC">      1.00000000</i>
   <i type="int" name="NKREDX">     1</i>
   <i type="int" name="NKREDY">     1</i>
   <i type="int" name="NKREDZ">     1</i>
   <i type="logical" name="SHIFTRED"> F  </i>
   <i type="logical" name="ODDONLY"> F  </i>
   <i type="logical" name="EVENONLY"> F  </i>
   <i type="int" name="LMAXFOCK">     0</i>
   <i type="int" name="NMAXFOCKAE">     0</i>
   <i type="logical" name="LFOCKAEDFT"> F  </i>
   <i name="HFSCREEN">      0.00000000</i>
   <i name="HFSCREENC">      0.00000000</i>
   <i type="int" name="NBANDSGWLOW">     0</i>
  </separator>
  <separator name="vdW DFT" >
   <i type="logical" name="LUSE_VDW"> F  </i>
   <i name="Zab_VDW">     -0.84910000</i>
   <i name="PARAM1">      0.12340000</i>
   <i name="PARAM2">      1.00000000</i>
   <i name="PARAM3">      0.00000000</i>
  </separator>
  <separator name="model GW" >
   <i type="int" name="MODEL_GW">     0</i>
   <i name="MODEL_EPS0">     13.18532537</i>
   <i name="MODEL_ALPHA">      1.00000000</i>
  </separator>
  <separator name="linear response parameters" >
   <i type="logical" name="LEPSILON"> F  </i>
   <i type="logical" name="LRPA"> F  </i>
   <i type="logical" name="LNABLA"> F  </i>
   <i type="logical" name="LVEL"> F  </i>
   <i name="CSHIFT">      0.10000000</i>
   <i name="OMEGAMAX">     -1.00000000</i>
   <i name="DEG_THRESHOLD">      0.00200000</i>
   <i name="RTIME">     -0.10000000</i>
   <i name="WPLASMAI">      0.00000000</i>
   <v name="DFIELD">      0.00000000      0.00000000      0.00000000</v>
   <v name="WPLASMA">      0.00000000      0.00000000      0.00000000      0.00000000      0.00000000      0.00000000      0.00000000      0.00000000      0.00000000</v>
  </separator>
  <separator name="orbital magnetization" >
   <i type="logical" name="NUCIND"> F  </i>
   <v name="MAGPOS">      0.00000000      0.00000000      0.00000000</v>
   <i type="logical" name="LNICSALL"> T  </i>
   <i type="logical" name="ORBITALMAG"> F  </i>
   <i type="logical" name="LMAGBLOCH"> F  </i>
   <i type="logical" name="LCHIMAG"> F  </i>
   <i type="logical" name="LGAUGE"> T  </i>
   <i type="int" name="MAGATOM">     0</i>
   <v name="MAGDIPOL">      0.00000000      0.00000000      0.00000000</v>
   <v name="AVECCONST">      0.00000000      0.00000000      0.00000000</v>
  </separator>
  <separator name="response functions" >
   <i type="logical" name="LFINITE_TEMPERATURE"> F  </i>
   <i type="logical" name="LADDER"> F  </i>
   <i type="logical" name="LRPAFORCE"> F  </i>
   <i type="logical" name="LFXC"> F  </i>
   <i type="logical" name="LHARTREE"> T  </i>
   <i type="int" name="IBSE">     0</i>
   <v type="int" name="KPOINT">    -1     0     0     0</v>
   <i type="logical" name="LTCTC"> F  </i>
   <i type="logical" name="LTCTE"> F  </i>
   <i type="logical" name="LTETE"> F  </i>
   <i type="logical" name="LTRIPLET"> F  </i>
   <i type="logical" name="LFXCEPS"> F  </i>
   <i type="logical" name="LFXHEG"> F  </i>
   <i type="int" name="NATURALO">     2</i>
   <i type="logical" name="LHOLEGF"> F  </i>
   <i type="logical" name="L2ORDER"> F  </i>
   <i type="logical" name="LDMP1"> F  </i>
   <i type="logical" name="LMP2LT"> F  </i>
   <i type="logical" name="LSMP2LT"> F  </i>
   <i type="logical" name="LGWLF"> F  </i>
   <i name="ENCUTGW">     -2.00000000</i>
   <i name="ENCUTGWSOFT">     -2.00000000</i>
   <i name="ENCUTLF">     -1.00000000</i>
   <i type="logical" name="LESF_SPLINES"> F  </i>
   <i type="int" name="LMAXMP2">    -1</i>
   <i name="SCISSOR">      0.00000000</i>
   <i type="int" name="NOMEGA">     0</i>
   <i type="int" name="NOMEGAR">     0</i>
   <i type="int" name="NBANDSGW">    -1</i>
   <i type="int" name="NBANDSO">    -1</i>
   <i type="int" name="NBANDSV">    -1</i>
   <i type="int" name="NELMGW">     1</i>
   <i type="int" name="NELMHF">     1</i>
   <i type="int" name="DIM">     3</i>
   <i type="int" name="IESPILON">     4</i>
   <i type="int" name="ANTIRES">     0</i>
   <i name="OMEGAMAX">    -30.00000000</i>
   <i name="OMEGAMIN">    -30.00000000</i>
   <i name="OMEGATL">   -200.00000000</i>
   <i type="int" name="OMEGAGRID">     0</i>
   <i name="CSHIFT">     -0.10000000</i>
   <i type="logical" name="LSELFENERGY"> F  </i>
   <i type="logical" name="LSPECTRAL"> F  </i>
   <i type="logical" name="LSPECTRALGW"> F  </i>
   <i type="logical" name="LSINGLES"> F  </i>
   <i type="logical" name="LFERMIGW"> F  </i>
   <i type="logical" name="ODDONLYGW"> F  </i>
   <i type="logical" name="EVENONLYGW"> F  </i>
   <i type="int" name="NKREDLFX">     1</i>
   <i type="int" name="NKREDLFY">     1</i>
   <i type="int" name="NKREDLFZ">     1</i>
   <i type="int" name="MAXMEM">  2800</i>
   <i type="int" name="TELESCOPE">     0</i>
   <i type="int" name="NTAUPAR">    -1</i>
   <i type="int" name="NOMEGAPAR">    -1</i>
   <i name="DAMP_NEWTON">      0.80000001</i>
   <i name="LAMBDA">      1.00000000</i>
  </separator>
  <separator name="External order field" >
   <i name="OFIELD_KAPPA">      0.00000000</i>
   <v name="OFIELD_K">      0.00000000      0.00000000      0.00000000</v>
   <i name="OFIELD_Q6_NEAR">      0.00000000</i>
   <i name="OFIELD_Q6_FAR">      0.00000000</i>
   <i name="OFIELD_A">      0.00000000</i>
  </separator>
  <separator name="optional k-points parameters" >
   <i type="int" name="KPOINTS_OPT_MODE">     1</i>
   <i type="logical" name="LKPOINTS_OPT"> F  </i>
  </separator>
 </parameters>
 <atominfo>
  <atoms>      64 </atoms>
  <types>       2 </types>
  <array name="atoms" >
   <dimension dim="1">ion</dimension>
   <field type="string">element</field>
   <field type="int">atomtype</field>
   <set>
    <rc><c>Na</c><c>   1</c></rc>
    <rc><c>Na</c><c>   1</c></rc>
    <rc><c>Na</c><c>   1</c></rc>
    <rc><c>Na</c><c>   1</c></rc>
    <rc><c>Na</c><c>   1</c></rc>
    <rc><c>Na</c><c>   1</c></rc>
    <rc><c>Na</c><c>   1</c></rc>
    <rc><c>Na</c><c>   1</c></rc>
    <rc><c>Na</c><c>   1</c></rc>
    <rc><c>Na</c><c>   1</c></rc>
    <rc><c>Na</c><c>   1</c></rc>
    <rc><c>Na</c><c>   1</c></rc>
    <rc><c>Na</c><c>   1</c></rc>
    <rc><c>Na</c><c>   1</c></rc>
    <rc><c>Na</c><c>   1</c></rc>
    <rc><c>Na</c><c>   1</c></rc>
    <rc><c>Na</c><c>   1</c></rc>
    <rc><c>Na</c><c>   1</c></rc>
    <rc><c>Na</c><c>   1</c></rc>
    <rc><c>Na</c><c>   1</c></rc>
    <rc><c>Na</c><c>   1</c></rc>
    <rc><c>Na</c><c>   1</c></rc>
    <rc><c>Na</c><c>   1</c></rc>
    <rc><c>Na</c><c>   1</c></rc>
    <rc><c>Na</c><c>   1</c></rc>
    <rc><c>Na</c><c>   1</c></rc>
    <rc><c>Na</c><c>   1</c></rc>
    <rc><c>Na</c><c>   1</c></rc>
    <rc><c>Na</c><c>   1</c></rc>
    <rc><c>Na</c><c>   1</c></rc>
    <rc><c>Na</c><c>   1</c></rc>
    <rc><c>Na</c><c>   1</c></rc>
    <rc><c>Cl</c><c>   2</c></rc>
    <rc><c>Cl</c><c>   2</c></rc>
    <rc><c>Cl</c><c>   2</c></rc>
    <rc><c>Cl</c><c>   2</c></rc>
    <rc><c>Cl</c><c>   2</c></rc>
    <rc><c>Cl</c><c>   2</c></rc>
    <rc><c>Cl</c><c>   2</c></rc>
    <rc><c>Cl</c><c>   2</c></rc>
    <rc><c>Cl</c><c>   2</c></rc>
    <rc><c>Cl</c><c>   2</c></rc>
    <rc><c>Cl</c><c>   2</c></rc>
    <rc><c>Cl</c><c>   2</c></rc>
    <rc><c>Cl</c><c>   2</c></rc>
    <rc><c>Cl</c><c>   2</c></rc>
    <rc><c>Cl</c><c>   2</c></rc>
    <rc><c>Cl</c><c>   2</c></rc>
    <rc><c>Cl</c><c>   2</c></rc>
    <rc><c>Cl</c><c>   2</c></rc>
    <rc><c>Cl</c><c>   2</c></rc>
    <rc><c>Cl</c><c>   2</c></rc>
    <rc><c>Cl</c><c>   2</c></rc>
    <rc><c>Cl</c><c>   2</c></rc>
    <rc><c>Cl</c><c>   2</c></rc>
    <rc><c>Cl</c><c>   2</c></rc>
    <rc><c>Cl</c><c>   2</c></rc>
    <rc><c>Cl</c><c>   2</c></rc>
    <rc><c>Cl</c><c>   2</c></rc>
    <rc><c>Cl</c><c>   2</c></rc>
    <rc><c>Cl</c><c>   2</c></rc>
    <rc><c>Cl</c><c>   2</c></rc>
    <rc><c>Cl</c><c>   2</c></rc>
    <rc><c>Cl</c><c>   2</c></rc>
   </set>
  </array>
  <array name="atomtypes" >
   <dimension dim="1">type</dimension>
   <field type="int">atomspertype</field>
   <field type="string">element</field>
   <field>mass</field>
   <field>valence</field>
   <field type="string">pseudopotential</field>
   <set>
    <rc><c>  32</c><c>Na</c><c>     22.99000000</c><c>      7.00000000</c><c>  PAW_PBE Na_pv 19Sep2006               </c></rc>
    <rc><c>  32</c><c>Cl</c><c>     35.45300000</c><c>      7.00000000</c><c>  PAW_PBE Cl 06Sep2000                  </c></rc>
   </set>
  </array>
 </atominfo>
 <structure name="initialpos" >
  <crystal>
   <varray name="basis" >
    <v>      11.20400236       0.00000000       0.00000000 </v>
    <v>       0.00000000      11.20400236       0.00000000 </v>
    <v>       0.00000000       0.00000000      11.20400236 </v>
   </varray>
   <i name="volume">   1406.43470641 </i>
   <varray name="rec_basis" >
    <v>       0.08925382       0.00000000       0.00000000 </v>
    <v>       0.00000000       0.08925382       0.00000000 </v>
    <v>       0.00000000       0.00000000       0.08925382 </v>
   </varray>
  </crystal>
  <varray name="positions" >
   <v>       0.00267761       0.00000000       0.00000000 </v>
   <v>       0.25000000       0.25267761       0.00000000 </v>
   <v>       0.25000000       0.00000000       0.25000000 </v>
   <v>       0.00000000       0.25000000       0.25000000 </v>
   <v>       0.00000000       0.00000000       0.50000000 </v>
   <v>       0.25000000       0.25000000       0.50000000 </v>
   <v>       0.25000000       0.00000000       0.75000000 </v>
   <v>       0.00000000       0.25000000       0.75000000 </v>
   <v>       0.00000000       0.50000000       0.00000000 </v>
   <v>       0.25000000       0.75000000       0.00000000 </v>
   <v>       0.25000000       0.50000000       0.25000000 </v>
   <v>       0.00000000       0.75000000       0.25000000 </v>
   <v>       0.00000000       0.50000000       0.50000000 </v>
   <v>       0.25000000       0.75000000       0.50000000 </v>
   <v>       0.25000000       0.50000000       0.75000000 </v>
   <v>       0.00000000       0.75000000       0.75000000 </v>
   <v>       0.50000000       0.00000000       0.00000000 </v>
   <v>       0.75000000       0.25000000       0.00000000 </v>
   <v>       0.75000000       0.00000000       0.25000000 </v>
   <v>       0.50000000       0.25000000       0.25000000 </v>
   <v>       0.50000000       0.00000000       0.50000000 </v>
   <v>       0.75000000       0.25000000       0.50000000 </v>
   <v>       0.75000000       0.00000000       0.75000000 </v>
   <v>       0.50000000       0.25000000       0.75000000 </v>
   <v>       0.50000000       0.50000000       0.00000000 </v>
   <v>       0.75000000       0.75000000       0.00000000 </v>
   <v>       0.75000000       0.50000000       0.25000000 </v>
   <v>       0.50000000       0.75000000       0.25000000 </v>
   <v>       0.50000000       0.50000000       0.50000000 </v>
   <v>       0.75000000       0.75000000       0.50000000 </v>
   <v>       0.75000000       0.50000000       0.75000000 </v>
   <v>       0.50000000       0.75000000       0.75000000 </v>
   <v>       0.25000000       0.25000000       0.25000000 </v>
   <v>       0.00000000       0.00000000       0.25000000 </v>
   <v>       0.00000000       0.25000000       0.00000000 </v>
   <v>       0.25000000       0.00000000       0.00000000 </v>
   <v>       0.25000000       0.25000000       0.75000000 </v>
   <v>       0.00000000       0.00000000       0.75000000 </v>
   <v>       0.00000000       0.25000000       0.50000000 </v>
   <v>       0.25000000       0.00000000       0.50000000 </v>
   <v>       0.25000000       0.75000000       0.25000000 </v>
   <v>       0.00000000       0.50000000       0.25000000 </v>
   <v>       0.00000000       0.75000000       0.00000000 </v>
   <v>       0.25000000       0.50000000       0.00000000 </v>
   <v>       0.25000000       0.75000000       0.75000000 </v>
   <v>       0.00000000       0.50000000       0.75000000 </v>
   <v>       0.00000000       0.75000000       0.50000000 </v>
   <v>       0.25000000       0.50000000       0.50000000 </v>
   <v>       0.75000000       0.25000000       0.25000000 </v>
   <v>       0.50000000       0.00000000       0.25000000 </v>
   <v>       0.50000000       0.25000000       0.00000000 </v>
   <v>       0.75000000       0.00000000       0.00000000 </v>
   <v>       0.75000000       0.25000000       0.75000000 </v>
   <v>       0.50000000       0.00000000       0.75000000 </v>
   <v>       0.50000000       0.25000000       0.50000000 </v>
   <v>       0.75000000       0.00000000       0.50000000 </v>
   <v>       0.75000000       0.75000000       0.25000000 </v>
   <v>       0.50000000       0.50000000       0.25000000 </v>
   <v>       0.50000000       0.75000000       0.00000000 </v>
   <v>       0.75000000       0.50000000       0.00000000 </v>
   <v>       0.75000000       0.75000000       0.75000000 </v>
   <v>       0.50000000       0.50000000       0.75000000 </v>
   <v>       0.50000000       0.75000000       0.50000000 </v>
   <v>       0.75000000       0.50000000       0.50000000 </v>
  </varray>
 </structure>
 <calculation>
  <scstep>
   <time name="dav">    9.36    9.45</time>
   <time name="total">    9.43    9.54</time>
   <energy>
    <i name="alphaZ">    751.52672365 </i>
    <i name="ewald"> -22871.35446968 </i>
    <i name="hartreedc">  -8992.23113568 </i>
    <i name="XCdc">   1456.53421629 </i>
    <i name="pawpsdc">  26466.43774078 </i>
    <i name="pawaedc"> -29286.08056155 </i>
    <i name="eentropy">     -0.00374439 </i>
    <i name="bandstr">   -735.20370323 </i>
    <i name="atom">  37532.17946992 </i>
    <i name="e_fr_energy">   4321.80453612 </i>
    <i name="e_wo_entrp">   4321.80828051 </i>
    <i name="e_0_energy">   4321.80640831 </i>
   </energy>
  </scstep>
  <scstep>
   <time name="dav">   10.18   10.24</time>
   <time name="total">   10.18   10.24</time>
   <energy>
    <i name="e_fr_energy">    363.64827897 </i>
    <i name="e_wo_entrp">    363.64827897 </i>
    <i name="e_0_energy">    363.64827897 </i>
   </energy>
  </scstep>
  <scstep>
   <time name="dav">   10.98   11.04</time>
   <time name="total">   10.98   11.04</time>
   <energy>
    <i name="e_fr_energy">   -206.19448723 </i>
    <i name="e_wo_entrp">   -206.19448723 </i>
    <i name="e_0_energy">   -206.19448723 </i>
   </energy>
  </scstep>
  <scstep>
   <time name="dav">   10.92   10.98</time>
   <time name="total">   10.92   10.98</time>
   <energy>
    <i name="e_fr_energy">   -228.19277615 </i>
    <i name="e_wo_entrp">   -228.19277615 </i>
    <i name="e_0_energy">   -228.19277615 </i>
   </energy>
  </scstep>
  <scstep>
   <time name="dav">   11.03   11.09</time>
   <time name="total">   11.37   11.43</time>
   <energy>
    <i name="e_fr_energy">   -229.00352085 </i>
    <i name="e_wo_entrp">   -229.00352085 </i>
    <i name="e_0_energy">   -229.00352085 </i>
   </energy>
  </scstep>
  <scstep>
   <time name="dav">   11.27   11.33</time>
   <time name="total">   11.68   11.74</time>
   <energy>
    <i name="e_fr_energy">   -224.13924737 </i>
    <i name="e_wo_entrp">   -224.13924737 </i>
    <i name="e_0_energy">   -224.13924737 </i>
   </energy>
  </scstep>
  <scstep>
   <time name="dav">   12.07   12.14</time>
   <time name="total">   12.48   12.55</time>
   <energy>
    <i name="e_fr_energy">   -223.77779189 </i>
    <i name="e_wo_entrp">   -223.77779189 </i>
    <i name="e_0_energy">   -223.77779189 </i>
   </energy>
  </scstep>
  <scstep>
   <time name="dav">   10.68   10.74</time>
   <time name="total">   11.09   11.15</time>
   <energy>
    <i name="e_fr_energy">   -223.90303965 </i>
    <i name="e_wo_entrp">   -223.90303965 </i>
    <i name="e_0_energy">   -223.90303965 </i>
   </energy>
  </scstep>
  <scstep>
   <time name="dav">   11.31   11.37</time>
   <time name="total">   11.72   11.78</time>
   <energy>
    <i name="e_fr_energy">   -223.89746659 </i>
    <i name="e_wo_entrp">   -223.89746659 </i>
    <i name="e_0_energy">   -223.89746659 </i>
   </energy>
  </scstep>
  <scstep>
   <time name="dav">   10.74   10.80</time>
   <time name="total">   11.15   11.22</time>
   <energy>
    <i name="e_fr_energy">   -223.90181517 </i>
    <i name="e_wo_entrp">   -223.90181517 </i>
    <i name="e_0_energy">   -223.90181517 </i>
   </energy>
  </scstep>
  <scstep>
   <time name="dav">   11.17   11.23</time>
   <time name="total">   11.58   11.65</time>
   <energy>
    <i name="e_fr_energy">   -223.90102737 </i>
    <i name="e_wo_entrp">   -223.90102737 </i>
    <i name="e_0_energy">   -223.90102737 </i>
   </energy>
  </scstep>
  <scstep>
   <time name="dav">   11.91   11.97</time>
   <time name="total">   12.32   12.39</time>
   <energy>
    <i name="e_fr_energy">   -223.90099480 </i>
    <i name="e_wo_entrp">   -223.90099480 </i>
    <i name="e_0_energy">   -223.90099480 </i>
   </energy>
  </scstep>
  <scstep>
   <time name="dav">   10.83   10.89</time>
   <time name="total">   11.24   11.30</time>
   <energy>
    <i name="e_fr_energy">   -223.90100089 </i>
    <i name="e_wo_entrp">   -223.90100089 </i>
    <i name="e_0_energy">   -223.90100089 </i>
   </energy>
  </scstep>
  <scstep>
   <time name="dav">   12.17   12.24</time>
   <time name="total">   12.58   12.65</time>
   <energy>
    <i name="e_fr_energy">   -223.90100023 </i>
    <i name="e_wo_entrp">   -223.90100023 </i>
    <i name="e_0_energy">   -223.90100023 </i>
   </energy>
  </scstep>
  <scstep>
   <time name="dav">    9.67    9.72</time>
   <time name="total">   10.08   10.13</time>
   <energy>
    <i name="e_fr_energy">   -223.90100136 </i>
    <i name="e_wo_entrp">   -223.90100136 </i>
    <i name="e_0_energy">   -223.90100136 </i>
   </energy>
  </scstep>
  <scstep>
   <time name="dav">   10.83   10.90</time>
   <time name="total">   11.24   11.31</time>
   <energy>
    <i name="e_fr_energy">   -223.90100193 </i>
    <i name="e_wo_entrp">   -223.90100193 </i>
    <i name="e_0_energy">   -223.90100193 </i>
   </energy>
  </scstep>
  <scstep>
   <time name="dav">    7.89    7.93</time>
   <time name="total">    7.96    8.00</time>
   <energy>
    <i name="alphaZ">    751.52672365 </i>
    <i name="ewald"> -22871.35446968 </i>
    <i name="hartreedc">  -9078.14195673 </i>
    <i name="XCdc">   1472.51329638 </i>
    <i name="pawpsdc">  29498.24801494 </i>
    <i name="pawaedc"> -32317.61296768 </i>
    <i name="eentropy">     -0.00000000 </i>
    <i name="bandstr">  -5211.25911273 </i>
    <i name="atom">  37532.17946992 </i>
    <i name="e_fr_energy">   -223.90100193 </i>
    <i name="e_wo_entrp">   -223.90100193 </i>
    <i name="e_0_energy">   -223.90100193 </i>
   </energy>
  </scstep>
  <structure>
   <crystal>
    <varray name="basis" >
     <v>      11.20400236       0.00000000       0.00000000 </v>
     <v>       0.00000000      11.20400236       0.00000000 </v>
     <v>       0.00000000       0.00000000      11.20400236 </v>
    </varray>
    <i name="volume">   1406.43470641 </i>
    <varray name="rec_basis" >
     <v>       0.08925382       0.00000000       0.00000000 </v>
     <v>       0.00000000       0.08925382       0.00000000 </v>
     <v>       0.00000000       0.00000000       0.08925382 </v>
    </varray>
   </crystal>
   <varray name="positions" >
    <v>       0.00267761       0.00000000       0.00000000 </v>
    <v>       0.25000000       0.25267761       0.00000000 </v>
    <v>       0.25000000       0.00000000       0.25000000 </v>
    <v>       0.00000000       0.25000000       0.25000000 </v>
    <v>       0.00000000       0.00000000       0.50000000 </v>
    <v>       0.25000000       0.25000000       0.50000000 </v>
    <v>       0.25000000       0.00000000       0.75000000 </v>
    <v>       0.00000000       0.25000000       0.75000000 </v>
    <v>       0.00000000       0.50000000       0.00000000 </v>
    <v>       0.25000000       0.75000000       0.00000000 </v>
    <v>       0.25000000       0.50000000       0.25000000 </v>
    <v>       0.00000000       0.75000000       0.25000000 </v>
    <v>       0.00000000       0.50000000       0.50000000 </v>
    <v>       0.25000000       0.75000000       0.50000000 </v>
    <v>       0.25000000       0.50000000       0.75000000 </v>
    <v>       0.00000000       0.75000000       0.75000000 </v>
    <v>       0.50000000       0.00000000       0.00000000 </v>
    <v>       0.75000000       0.25000000       0.00000000 </v>
    <v>       0.75000000       0.00000000       0.25000000 </v>
    <v>       0.50000000       0.25000000       0.25000000 </v>
    <v>       0.50000000       0.00000000       0.50000000 </v>
    <v>       0.75000000       0.25000000       0.50000000 </v>
    <v>       0.75000000       0.00000000       0.75000000 </v>
    <v>       0.50000000       0.25000000       0.75000000 </v>
    <v>       0.50000000       0.50000000       0.00000000 </v>
    <v>       0.75000000       0.75000000       0.00000000 </v>
    <v>       0.75000000       0.50000000       0.25000000 </v>
    <v>       0.50000000       0.75000000       0.25000000 </v>
    <v>       0.50000000       0.50000000       0.50000000 </v>
    <v>       0.75000000       0.75000000       0.50000000 </v>
    <v>       0.75000000       0.50000000       0.75000000 </v>
    <v>       0.50000000       0.75000000       0.75000000 </v>
    <v>       0.25000000       0.25000000       0.25000000 </v>
    <v>       0.00000000       0.00000000       0.25000000 </v>
    <v>       0.00000000       0.25000000       0.00000000 </v>
    <v>       0.25000000       0.00000000       0.00000000 </v>
    <v>       0.25000000       0.25000000       0.75000000 </v>
    <v>       0.00000000       0.00000000       0.75000000 </v>
    <v>       0.00000000       0.25000000       0.50000000 </v>
    <v>       0.25000000       0.00000000       0.50000000 </v>
    <v>       0.25000000       0.75000000       0.25000000 </v>
    <v>       0.00000000       0.50000000       0.25000000 </v>
    <v>       0.00000000       0.75000000       0.00000000 </v>
    <v>       0.25000000       0.50000000       0.00000000 </v>
    <v>       0.25000000       0.75000000       0.75000000 </v>
    <v>       0.00000000       0.50000000       0.75000000 </v>
    <v>       0.00000000       0.75000000       0.50000000 </v>
    <v>       0.25000000       0.50000000       0.50000000 </v>
    <v>       0.75000000       0.25000000       0.25000000 </v>
    <v>       0.50000000       0.00000000       0.25000000 </v>
    <v>       0.50000000       0.25000000       0.00000000 </v>
    <v>       0.75000000       0.00000000       0.00000000 </v>
    <v>       0.75000000       0.25000000       0.75000000 </v>
    <v>       0.50000000       0.00000000       0.75000000 </v>
    <v>       0.50000000       0.25000000       0.50000000 </v>
    <v>       0.75000000       0.00000000       0.50000000 </v>
    <v>       0.75000000       0.75000000       0.25000000 </v>
    <v>       0.50000000       0.50000000       0.25000000 </v>
    <v>       0.50000000       0.75000000       0.00000000 </v>
    <v>       0.75000000       0.50000000       0.00000000 </v>
    <v>       0.75000000       0.75000000       0.75000000 </v>
    <v>       0.50000000       0.50000000       0.75000000 </v>
    <v>       0.50000000       0.75000000       0.50000000 </v>
    <v>       0.75000000       0.50000000       0.50000000 </v>
   </varray>
  </structure>
  <varray name="forces" >
   <v>      -0.05689281       0.00159737       0.00000000 </v>
   <v>       0.00142560      -0.05701677       0.00000000 </v>
   <v>       0.00151392       0.00150824       0.00012682 </v>
   <v>      -0.00164553      -0.00168265      -0.00003834 </v>
   <v>      -0.00012208      -0.00002087       0.00000000 </v>
   <v>      -0.00003362      -0.00012660       0.00000000 </v>
   <v>       0.00151392       0.00150824      -0.00012682 </v>
   <v>      -0.00164553      -0.00168265       0.00003834 </v>
   <v>      -0.00598004       0.00151300       0.00000000 </v>
   <v>       0.00151253       0.00298900       0.00000000 </v>
   <v>      -0.00003370       0.00151325       0.00584945 </v>
   <v>      -0.00166849       0.00118220      -0.00001492 </v>
   <v>      -0.00037466      -0.00003387       0.00000000 </v>
   <v>      -0.00003338       0.00038629       0.00000000 </v>
   <v>      -0.00003370       0.00151325      -0.00584945 </v>
   <v>      -0.00166849       0.00118220       0.00001492 </v>
   <v>       0.00311448       0.00150948       0.00000000 </v>
   <v>       0.00150879      -0.00585757       0.00000000 </v>
   <v>       0.00150840      -0.00002014      -0.00572935 </v>
   <v>       0.00114386      -0.00165872      -0.00001473 </v>
   <v>       0.00038091      -0.00002028       0.00000000 </v>
   <v>      -0.00002116      -0.00038001       0.00000000 </v>
   <v>       0.00150840      -0.00002014       0.00572935 </v>
   <v>       0.00114386      -0.00165872       0.00001473 </v>
   <v>       0.00623616       0.00151290       0.00000000 </v>
   <v>       0.00150895       0.00611108       0.00000000 </v>
   <v>      -0.00002034      -0.00003346      -0.00000413 </v>
   <v>       0.00116754       0.00115808       0.00000963 </v>
   <v>       0.00036391      -0.00003375       0.00000000 </v>
   <v>      -0.00002044       0.00036718       0.00000000 </v>
   <v>      -0.00002034      -0.00003346       0.00000413 </v>
   <v>       0.00116754       0.00115808      -0.00000963 </v>
   <v>      -0.00021795       0.00368890      -0.00142260 </v>
   <v>       0.00370184      -0.00024056       0.00116867 </v>
   <v>       0.00509474       0.00489119       0.00000000 </v>
   <v>       0.02021985       0.01618500       0.00000000 </v>
   <v>      -0.00021795       0.00368890       0.00142260 </v>
   <v>       0.00370184      -0.00024056      -0.00116867 </v>
   <v>       0.00058304       0.00060236       0.00000000 </v>
   <v>       0.00016924       0.00013890       0.00000000 </v>
   <v>      -0.00021322      -0.00152026      -0.00131530 </v>
   <v>       0.00189531      -0.00022220      -0.00129553 </v>
   <v>       0.00499412      -0.00270813       0.00000000 </v>
   <v>       0.00017357       0.02022544       0.00000000 </v>
   <v>      -0.00021322      -0.00152026       0.00131530 </v>
   <v>       0.00189531      -0.00022220       0.00129553 </v>
   <v>       0.00058802      -0.00066784       0.00000000 </v>
   <v>      -0.00000578       0.00017359       0.00000000 </v>
   <v>      -0.00024347       0.00186801       0.00129329 </v>
   <v>      -0.00154143      -0.00024307       0.00126950 </v>
   <v>      -0.00294357       0.00498328       0.00000000 </v>
   <v>       0.01616728       0.00014109       0.00000000 </v>
   <v>      -0.00024347       0.00186801      -0.00129329 </v>
   <v>      -0.00154143      -0.00024307      -0.00126950 </v>
   <v>      -0.00064630       0.00058694       0.00000000 </v>
   <v>       0.00013824      -0.00001206       0.00000000 </v>
   <v>      -0.00024296      -0.00194638       0.00128218 </v>
   <v>      -0.00196968      -0.00022128      -0.00130314 </v>
   <v>      -0.00283668      -0.00281093       0.00000000 </v>
   <v>       0.00013901       0.00017317       0.00000000 </v>
   <v>      -0.00024296      -0.00194638      -0.00128218 </v>
   <v>      -0.00196968      -0.00022128       0.00130314 </v>
   <v>      -0.00066408      -0.00065882       0.00000000 </v>
   <v>      -0.00001204       0.00000034       0.00000000 </v>
  </varray>
  <varray name="stress" >
   <v>      -0.36687930      -0.00025617       0.00000000 </v>
   <v>      -0.00025617      -0.36688918       0.00000000 </v>
   <v>       0.00000000       0.00000000      -0.37832716 </v>
  </varray>
  <energy>
   <i name="e_fr_energy">   -223.90100193 </i>
   <i name="e_wo_entrp">   -223.90100193 </i>
   <i name="e_0_energy">   -223.90100193 </i>
  </energy>
  <time name="totalsc">  202.88  204.07</time>
  <eigenvalues>
   <array>
    <dimension dim="1">band</dimension>
    <dimension dim="2">kpoint</dimension>
    <dimension dim="3">spin</dimension>
    <field>eigene</field>
    <field>occ</field>
    <set>
     <set comment="spin 1">
      <set comment="kpoint 1">
       <r>  -21.3054    1.0000 </r>
       <r>  -21.3045    1.0000 </r>
       <r>  -21.3045    1.0000 </r>
       <r>  -21.3040    1.0000 </r>
       <r>  -21.2952    1.0000 </r>
       <r>  -21.2952    1.0000 </r>
       <r>  -21.2952    1.0000 </r>
       <r>  -21.2949    1.0000 </r>
       <r>  -21.2941    1.0000 </r>
       <r>  -21.2938    1.0000 </r>
       <r>  -21.2938    1.0000 </r>
       <r>  -21.2936    1.0000 </r>
       <r>  -21.2934    1.0000 </r>
       <r>  -21.2931    1.0000 </r>
       <r>  -21.2931    1.0000 </r>
       <r>  -21.2928    1.0000 </r>
       <r>  -21.2927    1.0000 </r>
       <r>  -21.2927    1.0000 </r>
       <r>  -21.2922    1.0000 </r>
       <r>  -21.2874    1.0000 </r>
       <r>  -21.2874    1.0000 </r>
       <r>  -21.2871    1.0000 </r>
       <r>  -21.2868    1.0000 </r>
       <r>  -21.2868    1.0000 </r>
       <r>  -21.2866    1.0000 </r>
       <r>  -21.2862    1.0000 </r>
       <r>  -21.2862    1.0000 </r>
       <r>  -21.2862    1.0000 </r>
       <r>  -21.2858    1.0000 </r>
       <r>  -21.2858    1.0000 </r>
       <r>  -21.2849    1.0000 </r>
       <r>  -21.2845    1.0000 </r>
       <r>  -21.2840    1.0000 </r>
       <r>  -21.2836    1.0000 </r>
       <r>  -21.2836    1.0000 </r>
       <r>  -21.2836    1.0000 </r>
       <r>  -21.2830    1.0000 </r>
       <r>  -21.2828    1.0000 </r>
       <r>  -21.2828    1.0000 </r>
       <r>  -21.2818    1.0000 </r>
       <r>  -21.2814    1.0000 </r>
       <r>  -21.2813    1.0000 </r>
       <r>  -21.2812    1.0000 </r>
       <r>  -21.2807    1.0000 </r>
       <r>  -21.2807    1.0000 </r>
       <r>  -21.2805    1.0000 </r>
       <r>  -21.2804    1.0000 </r>
       <r>  -21.2804    1.0000 </r>
       <r>  -21.2800    1.0000 </r>
       <r>  -21.2800    1.0000 </r>
       <r>  -21.2799    1.0000 </r>
       <r>  -21.2798    1.0000 </r>
       <r>  -21.2798    1.0000 </r>
       <r>  -21.2797    1.0000 </r>
       <r>  -21.2794    1.0000 </r>
       <r>  -21.2791    1.0000 </r>
       <r>  -21.2789    1.0000 </r>
       <r>  -21.2780    1.0000 </r>
       <r>  -21.2779    1.0000 </r>
       <r>  -21.2770    1.0000 </r>
       <r>  -21.2769    1.0000 </r>
       <r>  -21.2753    1.0000 </r>
       <r>  -21.2752    1.0000 </r>
       <r>  -21.2750    1.0000 </r>
       <r>  -21.2750    1.0000 </r>
       <r>  -21.2748    1.0000 </r>
       <r>  -21.2747    1.0000 </r>
       <r>  -21.2741    1.0000 </r>
       <r>  -21.2740    1.0000 </r>
       <r>  -21.2739    1.0000 </r>
       <r>  -21.2739    1.0000 </r>
       <r>  -21.2733    1.0000 </r>
       <r>  -21.2732    1.0000 </r>
       <r>  -21.2731    1.0000 </r>
       <r>  -21.2731    1.0000 </r>
       <r>  -21.2728    1.0000 </r>
       <r>  -21.2728    1.0000 </r>
       <r>  -21.2716    1.0000 </r>
       <r>  -21.2715    1.0000 </r>
       <r>  -21.2713    1.0000 </r>
       <r>  -21.2711    1.0000 </r>
       <r>  -21.2711    1.0000 </r>
       <r>  -21.2710    1.0000 </r>
       <r>  -21.2710    1.0000 </r>
       <r>  -21.2709    1.0000 </r>
       <r>  -21.2706    1.0000 </r>
       <r>  -21.2702    1.0000 </r>
       <r>  -21.2702    1.0000 </r>
       <r>  -21.2687    1.0000 </r>
       <r>  -21.2680    1.0000 </r>
       <r>  -21.2674    1.0000 </r>
       <r>  -21.2674    1.0000 </r>
       <r>  -21.2673    1.0000 </r>
       <r>  -21.2673    1.0000 </r>
       <r>  -21.2668    1.0000 </r>
       <r>  -21.2668    1.0000 </r>
       <r>  -13.3581    1.0000 </r>
       <r>  -13.1425    1.0000 </r>
       <r>  -13.1374    1.0000 </r>
       <r>  -13.1373    1.0000 </r>
       <r>  -13.1373    1.0000 </r>
       <r>  -13.1373    1.0000 </r>
       <r>  -13.1335    1.0000 </r>
       <r>  -13.0224    1.0000 </r>
       <r>  -13.0115    1.0000 </r>
       <r>  -13.0115    1.0000 </r>
       <r>  -13.0113    1.0000 </r>
       <r>  -13.0112    1.0000 </r>
       <r>  -13.0112    1.0000 </r>
       <r>  -13.0112    1.0000 </r>
       <r>  -13.0111    1.0000 </r>
       <r>  -13.0111    1.0000 </r>
       <r>  -13.0111    1.0000 </r>
       <r>  -13.0111    1.0000 </r>
       <r>  -13.0055    1.0000 </r>
       <r>  -12.9900    1.0000 </r>
       <r>  -12.9897    1.0000 </r>
       <r>  -12.9897    1.0000 </r>
       <r>  -12.9862    1.0000 </r>
       <r>  -12.9423    1.0000 </r>
       <r>  -12.9410    1.0000 </r>
       <r>  -12.9407    1.0000 </r>
       <r>  -12.9241    1.0000 </r>
       <r>  -12.9214    1.0000 </r>
       <r>  -12.9214    1.0000 </r>
       <r>  -12.9214    1.0000 </r>
       <r>  -12.9213    1.0000 </r>
       <r>  -12.9147    1.0000 </r>
       <r>   -2.7001    1.0000 </r>
       <r>   -2.7000    1.0000 </r>
       <r>   -2.7000    1.0000 </r>
       <r>   -2.6999    1.0000 </r>
       <r>   -2.4240    1.0000 </r>
       <r>   -2.4240    1.0000 </r>
       <r>   -2.4240    1.0000 </r>
       <r>   -2.2075    1.0000 </r>
       <r>   -2.2074    1.0000 </r>
       <r>   -2.2050    1.0000 </r>
       <r>   -2.2044    1.0000 </r>
       <r>   -2.2044    1.0000 </r>
       <r>   -2.2042    1.0000 </r>
       <r>   -2.2042    1.0000 </r>
       <r>   -2.2041    1.0000 </r>
       <r>   -2.2041    1.0000 </r>
       <r>   -2.2034    1.0000 </r>
       <r>   -2.2013    1.0000 </r>
       <r>   -2.2012    1.0000 </r>
       <r>   -1.9277    1.0000 </r>
       <r>   -1.9277    1.0000 </r>
       <r>   -1.9255    1.0000 </r>
       <r>   -1.9254    1.0000 </r>
       <r>   -1.9248    1.0000 </r>
       <r>   -1.9247    1.0000 </r>
       <r>   -1.9246    1.0000 </r>
       <r>   -1.9246    1.0000 </r>
       <r>   -1.9240    1.0000 </r>
       <r>   -1.9239    1.0000 </r>
       <r>   -1.9218    1.0000 </r>
       <r>   -1.9217    1.0000 </r>
       <r>   -1.7976    1.0000 </r>
       <r>   -1.7967    1.0000 </r>
       <r>   -1.7966    1.0000 </r>
       <r>   -1.7965    1.0000 </r>
       <r>   -1.7965    1.0000 </r>
       <r>   -1.7956    1.0000 </r>
       <r>   -1.5062    1.0000 </r>
       <r>   -1.5061    1.0000 </r>
       <r>   -1.5056    1.0000 </r>
       <r>   -1.5056    1.0000 </r>
       <r>   -1.5054    1.0000 </r>
       <r>   -1.5054    1.0000 </r>
       <r>   -1.5053    1.0000 </r>
       <r>   -1.5051    1.0000 </r>
       <r>   -1.5051    1.0000 </r>
       <r>   -1.5050    1.0000 </r>
       <r>   -1.5044    1.0000 </r>
       <r>   -1.5043    1.0000 </r>
       <r>   -1.4636    1.0000 </r>
       <r>   -1.4631    1.0000 </r>
       <r>   -1.4631    1.0000 </r>
       <r>   -1.4629    1.0000 </r>
       <r>   -1.4629    1.0000 </r>
       <r>   -1.4621    1.0000 </r>
       <r>   -1.2948    1.0000 </r>
       <r>   -1.2947    1.0000 </r>
       <r>   -1.2947    1.0000 </r>
       <r>   -1.2947    1.0000 </r>
       <r>   -1.2946    1.0000 </r>
       <r>   -1.2946    1.0000 </r>
       <r>   -1.0045    1.0000 </r>
       <r>   -1.0038    1.0000 </r>
       <r>   -1.0012    1.0000 </r>
       <r>   -1.0012    1.0000 </r>
       <r>   -1.0010    1.0000 </r>
       <r>   -1.0007    1.0000 </r>
       <r>   -1.0007    1.0000 </r>
       <r>   -1.0007    1.0000 </r>
       <r>   -1.0002    1.0000 </r>
       <r>   -1.0002    1.0000 </r>
       <r>   -0.9987    1.0000 </r>
       <r>   -0.9981    1.0000 </r>
       <r>   -0.9534    1.0000 </r>
       <r>   -0.9526    1.0000 </r>
       <r>   -0.9521    1.0000 </r>
       <r>   -0.9492    1.0000 </r>
       <r>   -0.9486    1.0000 </r>
       <r>   -0.9480    1.0000 </r>
       <r>   -0.9478    1.0000 </r>
       <r>   -0.9478    1.0000 </r>
       <r>   -0.9478    1.0000 </r>
       <r>   -0.9475    1.0000 </r>
       <r>   -0.9472    1.0000 </r>
       <r>   -0.9470    1.0000 </r>
       <r>   -0.9458    1.0000 </r>
       <r>   -0.9458    1.0000 </r>
       <r>   -0.9457    1.0000 </r>
       <r>   -0.9456    1.0000 </r>
       <r>   -0.9445    1.0000 </r>
       <r>   -0.9409    1.0000 </r>
       <r>   -0.9404    1.0000 </r>
       <r>   -0.9399    1.0000 </r>
       <r>   -0.6649    1.0000 </r>
       <r>   -0.6649    1.0000 </r>
       <r>   -0.6649    1.0000 </r>
       <r>    4.3403    0.0000 </r>
       <r>    6.3656    0.0000 </r>
       <r>    6.3678    0.0000 </r>
       <r>    6.3682    0.0000 </r>
       <r>    6.3682    0.0000 </r>
       <r>    6.3686    0.0000 </r>
       <r>    6.3707    0.0000 </r>
       <r>    6.4446    0.0000 </r>
       <r>    6.4446    0.0000 </r>
       <r>    6.4446    0.0000 </r>
       <r>    6.4447    0.0000 </r>
       <r>    6.8279    0.0000 </r>
       <r>    6.8280    0.0000 </r>
       <r>    6.8280    0.0000 </r>
       <r>    7.2068    0.0000 </r>
       <r>    7.2068    0.0000 </r>
       <r>    7.2069    0.0000 </r>
       <r>    7.4611    0.0000 </r>
       <r>    7.4623    0.0000 </r>
       <r>    7.4627    0.0000 </r>
       <r>    7.4635    0.0000 </r>
       <r>    7.4635    0.0000 </r>
       <r>    7.4642    0.0000 </r>
       <r>    7.4642    0.0000 </r>
       <r>    7.4649    0.0000 </r>
       <r>    7.4649    0.0000 </r>
       <r>    7.4657    0.0000 </r>
       <r>    7.4661    0.0000 </r>
       <r>    7.4673    0.0000 </r>
       <r>    8.1666    0.0000 </r>
       <r>    8.1684    0.0000 </r>
       <r>    8.1684    0.0000 </r>
       <r>    8.1684    0.0000 </r>
       <r>    8.1684    0.0000 </r>
       <r>    8.1702    0.0000 </r>
       <r>    8.2770    0.0000 </r>
       <r>    8.2785    0.0000 </r>
       <r>    8.2795    0.0000 </r>
       <r>    8.2795    0.0000 </r>
       <r>    8.2807    0.0000 </r>
       <r>    8.2821    0.0000 </r>
       <r>    8.8956    0.0000 </r>
       <r>    8.8964    0.0000 </r>
       <r>    8.8991    0.0000 </r>
       <r>    8.8993    0.0000 </r>
       <r>    8.8998    0.0000 </r>
       <r>    8.9004    0.0000 </r>
       <r>    8.9008    0.0000 </r>
       <r>    8.9020    0.0000 </r>
       <r>    8.9022    0.0000 </r>
       <r>    8.9028    0.0000 </r>
       <r>    8.9041    0.0000 </r>
       <r>    8.9063    0.0000 </r>
       <r>    8.9141    0.0000 </r>
       <r>    8.9144    0.0000 </r>
       <r>    8.9144    0.0000 </r>
       <r>    8.9162    0.0000 </r>
       <r>    8.9167    0.0000 </r>
       <r>    8.9170    0.0000 </r>
       <r>    8.9174    0.0000 </r>
       <r>    8.9187    0.0000 </r>
       <r>    8.9200    0.0000 </r>
       <r>    8.9209    0.0000 </r>
       <r>    8.9216    0.0000 </r>
      </set>
      <set comment="kpoint 2">
       <r>  -21.3031    1.0000 </r>
       <r>  -21.3021    1.0000 </r>
       <r>  -21.3010    1.0000 </r>
       <r>  -21.3006    1.0000 </r>
       <r>  -21.2992    1.0000 </r>
       <r>  -21.2988    1.0000 </r>
       <r>  -21.2978    1.0000 </r>
       <r>  -21.2970    1.0000 </r>
       <r>  -21.2948    1.0000 </r>
       <r>  -21.2942    1.0000 </r>
       <r>  -21.2940    1.0000 </r>
       <r>  -21.2931    1.0000 </r>
       <r>  -21.2927    1.0000 </r>
       <r>  -21.2922    1.0000 </r>
       <r>  -21.2920    1.0000 </r>
       <r>  -21.2919    1.0000 </r>
       <r>  -21.2916    1.0000 </r>
       <r>  -21.2916    1.0000 </r>
       <r>  -21.2906    1.0000 </r>
       <r>  -21.2901    1.0000 </r>
       <r>  -21.2901    1.0000 </r>
       <r>  -21.2895    1.0000 </r>
       <r>  -21.2885    1.0000 </r>
       <r>  -21.2883    1.0000 </r>
       <r>  -21.2882    1.0000 </r>
       <r>  -21.2881    1.0000 </r>
       <r>  -21.2876    1.0000 </r>
       <r>  -21.2875    1.0000 </r>
       <r>  -21.2866    1.0000 </r>
       <r>  -21.2864    1.0000 </r>
       <r>  -21.2863    1.0000 </r>
       <r>  -21.2860    1.0000 </r>
       <r>  -21.2859    1.0000 </r>
       <r>  -21.2857    1.0000 </r>
       <r>  -21.2835    1.0000 </r>
       <r>  -21.2834    1.0000 </r>
       <r>  -21.2833    1.0000 </r>
       <r>  -21.2828    1.0000 </r>
       <r>  -21.2826    1.0000 </r>
       <r>  -21.2825    1.0000 </r>
       <r>  -21.2822    1.0000 </r>
       <r>  -21.2814    1.0000 </r>
       <r>  -21.2800    1.0000 </r>
       <r>  -21.2800    1.0000 </r>
       <r>  -21.2798    1.0000 </r>
       <r>  -21.2794    1.0000 </r>
       <r>  -21.2792    1.0000 </r>
       <r>  -21.2789    1.0000 </r>
       <r>  -21.2789    1.0000 </r>
       <r>  -21.2782    1.0000 </r>
       <r>  -21.2778    1.0000 </r>
       <r>  -21.2776    1.0000 </r>
       <r>  -21.2775    1.0000 </r>
       <r>  -21.2774    1.0000 </r>
       <r>  -21.2773    1.0000 </r>
       <r>  -21.2770    1.0000 </r>
       <r>  -21.2765    1.0000 </r>
       <r>  -21.2764    1.0000 </r>
       <r>  -21.2763    1.0000 </r>
       <r>  -21.2760    1.0000 </r>
       <r>  -21.2757    1.0000 </r>
       <r>  -21.2754    1.0000 </r>
       <r>  -21.2753    1.0000 </r>
       <r>  -21.2753    1.0000 </r>
       <r>  -21.2751    1.0000 </r>
       <r>  -21.2747    1.0000 </r>
       <r>  -21.2746    1.0000 </r>
       <r>  -21.2745    1.0000 </r>
       <r>  -21.2744    1.0000 </r>
       <r>  -21.2741    1.0000 </r>
       <r>  -21.2740    1.0000 </r>
       <r>  -21.2739    1.0000 </r>
       <r>  -21.2737    1.0000 </r>
       <r>  -21.2735    1.0000 </r>
       <r>  -21.2733    1.0000 </r>
       <r>  -21.2732    1.0000 </r>
       <r>  -21.2728    1.0000 </r>
       <r>  -21.2725    1.0000 </r>
       <r>  -21.2722    1.0000 </r>
       <r>  -21.2721    1.0000 </r>
       <r>  -21.2721    1.0000 </r>
       <r>  -21.2720    1.0000 </r>
       <r>  -21.2715    1.0000 </r>
       <r>  -21.2709    1.0000 </r>
       <r>  -21.2705    1.0000 </r>
       <r>  -21.2705    1.0000 </r>
       <r>  -21.2704    1.0000 </r>
       <r>  -21.2701    1.0000 </r>
       <r>  -21.2689    1.0000 </r>
       <r>  -21.2688    1.0000 </r>
       <r>  -21.2683    1.0000 </r>
       <r>  -21.2681    1.0000 </r>
       <r>  -21.2675    1.0000 </r>
       <r>  -21.2674    1.0000 </r>
       <r>  -21.2672    1.0000 </r>
       <r>  -21.2670    1.0000 </r>
       <r>  -13.2939    1.0000 </r>
       <r>  -13.2888    1.0000 </r>
       <r>  -13.1046    1.0000 </r>
       <r>  -13.0983    1.0000 </r>
       <r>  -13.0982    1.0000 </r>
       <r>  -13.0974    1.0000 </r>
       <r>  -13.0964    1.0000 </r>
       <r>  -13.0955    1.0000 </r>
       <r>  -13.0955    1.0000 </r>
       <r>  -13.0909    1.0000 </r>
       <r>  -13.0094    1.0000 </r>
       <r>  -13.0033    1.0000 </r>
       <r>  -13.0007    1.0000 </r>
       <r>  -13.0006    1.0000 </r>
       <r>  -13.0006    1.0000 </r>
       <r>  -13.0005    1.0000 </r>
       <r>  -12.9979    1.0000 </r>
       <r>  -12.9971    1.0000 </r>
       <r>  -12.9964    1.0000 </r>
       <r>  -12.9911    1.0000 </r>
       <r>  -12.9504    1.0000 </r>
       <r>  -12.9451    1.0000 </r>
       <r>  -12.9450    1.0000 </r>
       <r>  -12.9443    1.0000 </r>
       <r>  -12.9434    1.0000 </r>
       <r>  -12.9424    1.0000 </r>
       <r>  -12.9424    1.0000 </r>
       <r>  -12.9382    1.0000 </r>
       <r>  -12.9346    1.0000 </r>
       <r>  -12.9310    1.0000 </r>
       <r>  -12.9309    1.0000 </r>
       <r>  -12.9233    1.0000 </r>
       <r>   -2.5081    1.0000 </r>
       <r>   -2.5081    1.0000 </r>
       <r>   -2.5064    1.0000 </r>
       <r>   -2.5050    1.0000 </r>
       <r>   -2.5036    1.0000 </r>
       <r>   -2.5023    1.0000 </r>
       <r>   -2.5007    1.0000 </r>
       <r>   -2.5007    1.0000 </r>
       <r>   -2.2902    1.0000 </r>
       <r>   -2.2902    1.0000 </r>
       <r>   -2.2852    1.0000 </r>
       <r>   -2.2852    1.0000 </r>
       <r>   -2.2769    1.0000 </r>
       <r>   -2.2716    1.0000 </r>
       <r>   -2.1402    1.0000 </r>
       <r>   -2.1374    1.0000 </r>
       <r>   -2.1371    1.0000 </r>
       <r>   -2.1366    1.0000 </r>
       <r>   -2.1366    1.0000 </r>
       <r>   -2.1363    1.0000 </r>
       <r>   -2.1362    1.0000 </r>
       <r>   -2.1311    1.0000 </r>
       <r>   -1.9879    1.0000 </r>
       <r>   -1.9878    1.0000 </r>
       <r>   -1.9872    1.0000 </r>
       <r>   -1.9862    1.0000 </r>
       <r>   -1.9841    1.0000 </r>
       <r>   -1.9840    1.0000 </r>
       <r>   -1.9832    1.0000 </r>
       <r>   -1.9832    1.0000 </r>
       <r>   -1.8123    1.0000 </r>
       <r>   -1.8122    1.0000 </r>
       <r>   -1.8110    1.0000 </r>
       <r>   -1.8095    1.0000 </r>
       <r>   -1.8075    1.0000 </r>
       <r>   -1.8069    1.0000 </r>
       <r>   -1.8054    1.0000 </r>
       <r>   -1.8053    1.0000 </r>
       <r>   -1.5000    1.0000 </r>
       <r>   -1.5000    1.0000 </r>
       <r>   -1.4955    1.0000 </r>
       <r>   -1.4955    1.0000 </r>
       <r>   -1.3859    1.0000 </r>
       <r>   -1.3804    1.0000 </r>
       <r>   -1.3803    1.0000 </r>
       <r>   -1.3752    1.0000 </r>
       <r>   -1.2156    1.0000 </r>
       <r>   -1.2149    1.0000 </r>
       <r>   -1.2102    1.0000 </r>
       <r>   -1.2099    1.0000 </r>
       <r>   -1.1932    1.0000 </r>
       <r>   -1.1931    1.0000 </r>
       <r>   -1.1928    1.0000 </r>
       <r>   -1.1921    1.0000 </r>
       <r>   -1.1904    1.0000 </r>
       <r>   -1.1897    1.0000 </r>
       <r>   -1.1894    1.0000 </r>
       <r>   -1.1890    1.0000 </r>
       <r>   -1.1796    1.0000 </r>
       <r>   -1.1760    1.0000 </r>
       <r>   -1.1755    1.0000 </r>
       <r>   -1.1751    1.0000 </r>
       <r>   -1.1732    1.0000 </r>
       <r>   -1.1732    1.0000 </r>
       <r>   -1.1725    1.0000 </r>
       <r>   -1.1674    1.0000 </r>
       <r>   -1.1627    1.0000 </r>
       <r>   -1.1621    1.0000 </r>
       <r>   -1.1617    1.0000 </r>
       <r>   -1.1603    1.0000 </r>
       <r>   -1.1586    1.0000 </r>
       <r>   -1.1582    1.0000 </r>
       <r>   -1.1561    1.0000 </r>
       <r>   -1.1560    1.0000 </r>
       <r>   -1.0858    1.0000 </r>
       <r>   -1.0808    1.0000 </r>
       <r>   -0.9518    1.0000 </r>
       <r>   -0.9517    1.0000 </r>
       <r>   -0.9469    1.0000 </r>
       <r>   -0.9469    1.0000 </r>
       <r>   -0.9469    1.0000 </r>
       <r>   -0.9468    1.0000 </r>
       <r>   -0.9423    1.0000 </r>
       <r>   -0.9422    1.0000 </r>
       <r>   -0.9362    1.0000 </r>
       <r>   -0.9342    1.0000 </r>
       <r>   -0.9329    1.0000 </r>
       <r>   -0.9323    1.0000 </r>
       <r>   -0.9323    1.0000 </r>
       <r>   -0.9323    1.0000 </r>
       <r>   -0.9323    1.0000 </r>
       <r>   -0.9259    1.0000 </r>
       <r>   -0.7707    1.0000 </r>
       <r>   -0.7706    1.0000 </r>
       <r>   -0.7660    1.0000 </r>
       <r>   -0.7659    1.0000 </r>
       <r>    5.0205    0.0000 </r>
       <r>    5.0242    0.0000 </r>
       <r>    6.7144    0.0000 </r>
       <r>    6.7165    0.0000 </r>
       <r>    6.7166    0.0000 </r>
       <r>    6.7185    0.0000 </r>
       <r>    6.7190    0.0000 </r>
       <r>    6.7201    0.0000 </r>
       <r>    6.7202    0.0000 </r>
       <r>    6.7215    0.0000 </r>
       <r>    6.8402    0.0000 </r>
       <r>    6.8403    0.0000 </r>
       <r>    6.8417    0.0000 </r>
       <r>    6.8417    0.0000 </r>
       <r>    6.8446    0.0000 </r>
       <r>    6.8448    0.0000 </r>
       <r>    6.8461    0.0000 </r>
       <r>    6.8462    0.0000 </r>
       <r>    6.9696    0.0000 </r>
       <r>    6.9726    0.0000 </r>
       <r>    7.3591    0.0000 </r>
       <r>    7.3623    0.0000 </r>
       <r>    7.3628    0.0000 </r>
       <r>    7.3659    0.0000 </r>
       <r>    7.4775    0.0000 </r>
       <r>    7.4830    0.0000 </r>
       <r>    7.7116    0.0000 </r>
       <r>    7.7116    0.0000 </r>
       <r>    7.7176    0.0000 </r>
       <r>    7.7176    0.0000 </r>
       <r>    8.2620    0.0000 </r>
       <r>    8.2637    0.0000 </r>
       <r>    8.2643    0.0000 </r>
       <r>    8.2648    0.0000 </r>
       <r>    8.2666    0.0000 </r>
       <r>    8.2682    0.0000 </r>
       <r>    8.2682    0.0000 </r>
       <r>    8.2697    0.0000 </r>
       <r>    8.5334    0.0000 </r>
       <r>    8.5347    0.0000 </r>
       <r>    8.5348    0.0000 </r>
       <r>    8.5360    0.0000 </r>
       <r>    8.5364    0.0000 </r>
       <r>    8.5365    0.0000 </r>
       <r>    8.5388    0.0000 </r>
       <r>    8.5388    0.0000 </r>
       <r>    8.5391    0.0000 </r>
       <r>    8.5393    0.0000 </r>
       <r>    8.5398    0.0000 </r>
       <r>    8.5402    0.0000 </r>
       <r>    8.5403    0.0000 </r>
       <r>    8.5419    0.0000 </r>
       <r>    8.5427    0.0000 </r>
       <r>    8.5430    0.0000 </r>
       <r>    8.9438    0.0000 </r>
       <r>    8.9483    0.0000 </r>
       <r>    8.9485    0.0000 </r>
       <r>    8.9511    0.0000 </r>
       <r>    8.9525    0.0000 </r>
       <r>    8.9533    0.0000 </r>
       <r>    8.9533    0.0000 </r>
       <r>    8.9563    0.0000 </r>
       <r>    9.4911    0.0000 </r>
       <r>    9.5035    0.0000 </r>
      </set>
      <set comment="kpoint 3">
       <r>  -21.3031    1.0000 </r>
       <r>  -21.3021    1.0000 </r>
       <r>  -21.3011    1.0000 </r>
       <r>  -21.3006    1.0000 </r>
       <r>  -21.2991    1.0000 </r>
       <r>  -21.2988    1.0000 </r>
       <r>  -21.2978    1.0000 </r>
       <r>  -21.2970    1.0000 </r>
       <r>  -21.2949    1.0000 </r>
       <r>  -21.2941    1.0000 </r>
       <r>  -21.2940    1.0000 </r>
       <r>  -21.2931    1.0000 </r>
       <r>  -21.2927    1.0000 </r>
       <r>  -21.2923    1.0000 </r>
       <r>  -21.2919    1.0000 </r>
       <r>  -21.2919    1.0000 </r>
       <r>  -21.2917    1.0000 </r>
       <r>  -21.2917    1.0000 </r>
       <r>  -21.2906    1.0000 </r>
       <r>  -21.2902    1.0000 </r>
       <r>  -21.2900    1.0000 </r>
       <r>  -21.2895    1.0000 </r>
       <r>  -21.2885    1.0000 </r>
       <r>  -21.2883    1.0000 </r>
       <r>  -21.2882    1.0000 </r>
       <r>  -21.2881    1.0000 </r>
       <r>  -21.2876    1.0000 </r>
       <r>  -21.2874    1.0000 </r>
       <r>  -21.2867    1.0000 </r>
       <r>  -21.2865    1.0000 </r>
       <r>  -21.2863    1.0000 </r>
       <r>  -21.2860    1.0000 </r>
       <r>  -21.2859    1.0000 </r>
       <r>  -21.2857    1.0000 </r>
       <r>  -21.2834    1.0000 </r>
       <r>  -21.2834    1.0000 </r>
       <r>  -21.2833    1.0000 </r>
       <r>  -21.2829    1.0000 </r>
       <r>  -21.2826    1.0000 </r>
       <r>  -21.2824    1.0000 </r>
       <r>  -21.2822    1.0000 </r>
       <r>  -21.2814    1.0000 </r>
       <r>  -21.2801    1.0000 </r>
       <r>  -21.2800    1.0000 </r>
       <r>  -21.2798    1.0000 </r>
       <r>  -21.2795    1.0000 </r>
       <r>  -21.2791    1.0000 </r>
       <r>  -21.2788    1.0000 </r>
       <r>  -21.2788    1.0000 </r>
       <r>  -21.2782    1.0000 </r>
       <r>  -21.2779    1.0000 </r>
       <r>  -21.2776    1.0000 </r>
       <r>  -21.2775    1.0000 </r>
       <r>  -21.2774    1.0000 </r>
       <r>  -21.2773    1.0000 </r>
       <r>  -21.2770    1.0000 </r>
       <r>  -21.2766    1.0000 </r>
       <r>  -21.2765    1.0000 </r>
       <r>  -21.2763    1.0000 </r>
       <r>  -21.2759    1.0000 </r>
       <r>  -21.2757    1.0000 </r>
       <r>  -21.2754    1.0000 </r>
       <r>  -21.2753    1.0000 </r>
       <r>  -21.2753    1.0000 </r>
       <r>  -21.2752    1.0000 </r>
       <r>  -21.2747    1.0000 </r>
       <r>  -21.2746    1.0000 </r>
       <r>  -21.2745    1.0000 </r>
       <r>  -21.2744    1.0000 </r>
       <r>  -21.2741    1.0000 </r>
       <r>  -21.2740    1.0000 </r>
       <r>  -21.2739    1.0000 </r>
       <r>  -21.2737    1.0000 </r>
       <r>  -21.2736    1.0000 </r>
       <r>  -21.2732    1.0000 </r>
       <r>  -21.2732    1.0000 </r>
       <r>  -21.2728    1.0000 </r>
       <r>  -21.2724    1.0000 </r>
       <r>  -21.2722    1.0000 </r>
       <r>  -21.2721    1.0000 </r>
       <r>  -21.2721    1.0000 </r>
       <r>  -21.2720    1.0000 </r>
       <r>  -21.2715    1.0000 </r>
       <r>  -21.2709    1.0000 </r>
       <r>  -21.2705    1.0000 </r>
       <r>  -21.2705    1.0000 </r>
       <r>  -21.2705    1.0000 </r>
       <r>  -21.2701    1.0000 </r>
       <r>  -21.2689    1.0000 </r>
       <r>  -21.2687    1.0000 </r>
       <r>  -21.2683    1.0000 </r>
       <r>  -21.2681    1.0000 </r>
       <r>  -21.2675    1.0000 </r>
       <r>  -21.2674    1.0000 </r>
       <r>  -21.2672    1.0000 </r>
       <r>  -21.2671    1.0000 </r>
       <r>  -13.2938    1.0000 </r>
       <r>  -13.2888    1.0000 </r>
       <r>  -13.1046    1.0000 </r>
       <r>  -13.0983    1.0000 </r>
       <r>  -13.0982    1.0000 </r>
       <r>  -13.0973    1.0000 </r>
       <r>  -13.0965    1.0000 </r>
       <r>  -13.0955    1.0000 </r>
       <r>  -13.0954    1.0000 </r>
       <r>  -13.0909    1.0000 </r>
       <r>  -13.0093    1.0000 </r>
       <r>  -13.0033    1.0000 </r>
       <r>  -13.0007    1.0000 </r>
       <r>  -13.0006    1.0000 </r>
       <r>  -13.0006    1.0000 </r>
       <r>  -13.0005    1.0000 </r>
       <r>  -12.9979    1.0000 </r>
       <r>  -12.9971    1.0000 </r>
       <r>  -12.9966    1.0000 </r>
       <r>  -12.9910    1.0000 </r>
       <r>  -12.9503    1.0000 </r>
       <r>  -12.9451    1.0000 </r>
       <r>  -12.9450    1.0000 </r>
       <r>  -12.9443    1.0000 </r>
       <r>  -12.9435    1.0000 </r>
       <r>  -12.9424    1.0000 </r>
       <r>  -12.9423    1.0000 </r>
       <r>  -12.9382    1.0000 </r>
       <r>  -12.9346    1.0000 </r>
       <r>  -12.9310    1.0000 </r>
       <r>  -12.9309    1.0000 </r>
       <r>  -12.9233    1.0000 </r>
       <r>   -2.5081    1.0000 </r>
       <r>   -2.5080    1.0000 </r>
       <r>   -2.5064    1.0000 </r>
       <r>   -2.5050    1.0000 </r>
       <r>   -2.5036    1.0000 </r>
       <r>   -2.5023    1.0000 </r>
       <r>   -2.5008    1.0000 </r>
       <r>   -2.5007    1.0000 </r>
       <r>   -2.2901    1.0000 </r>
       <r>   -2.2901    1.0000 </r>
       <r>   -2.2852    1.0000 </r>
       <r>   -2.2852    1.0000 </r>
       <r>   -2.2769    1.0000 </r>
       <r>   -2.2716    1.0000 </r>
       <r>   -2.1417    1.0000 </r>
       <r>   -2.1366    1.0000 </r>
       <r>   -2.1365    1.0000 </r>
       <r>   -2.1363    1.0000 </r>
       <r>   -2.1363    1.0000 </r>
       <r>   -2.1357    1.0000 </r>
       <r>   -2.1355    1.0000 </r>
       <r>   -2.1326    1.0000 </r>
       <r>   -1.9877    1.0000 </r>
       <r>   -1.9877    1.0000 </r>
       <r>   -1.9868    1.0000 </r>
       <r>   -1.9866    1.0000 </r>
       <r>   -1.9846    1.0000 </r>
       <r>   -1.9837    1.0000 </r>
       <r>   -1.9832    1.0000 </r>
       <r>   -1.9831    1.0000 </r>
       <r>   -1.8122    1.0000 </r>
       <r>   -1.8122    1.0000 </r>
       <r>   -1.8106    1.0000 </r>
       <r>   -1.8100    1.0000 </r>
       <r>   -1.8080    1.0000 </r>
       <r>   -1.8065    1.0000 </r>
       <r>   -1.8054    1.0000 </r>
       <r>   -1.8054    1.0000 </r>
       <r>   -1.5000    1.0000 </r>
       <r>   -1.5000    1.0000 </r>
       <r>   -1.4955    1.0000 </r>
       <r>   -1.4955    1.0000 </r>
       <r>   -1.3859    1.0000 </r>
       <r>   -1.3804    1.0000 </r>
       <r>   -1.3803    1.0000 </r>
       <r>   -1.3752    1.0000 </r>
       <r>   -1.2152    1.0000 </r>
       <r>   -1.2149    1.0000 </r>
       <r>   -1.2106    1.0000 </r>
       <r>   -1.2100    1.0000 </r>
       <r>   -1.1943    1.0000 </r>
       <r>   -1.1932    1.0000 </r>
       <r>   -1.1927    1.0000 </r>
       <r>   -1.1914    1.0000 </r>
       <r>   -1.1902    1.0000 </r>
       <r>   -1.1896    1.0000 </r>
       <r>   -1.1895    1.0000 </r>
       <r>   -1.1890    1.0000 </r>
       <r>   -1.1791    1.0000 </r>
       <r>   -1.1760    1.0000 </r>
       <r>   -1.1753    1.0000 </r>
       <r>   -1.1752    1.0000 </r>
       <r>   -1.1735    1.0000 </r>
       <r>   -1.1731    1.0000 </r>
       <r>   -1.1725    1.0000 </r>
       <r>   -1.1678    1.0000 </r>
       <r>   -1.1626    1.0000 </r>
       <r>   -1.1626    1.0000 </r>
       <r>   -1.1613    1.0000 </r>
       <r>   -1.1609    1.0000 </r>
       <r>   -1.1591    1.0000 </r>
       <r>   -1.1576    1.0000 </r>
       <r>   -1.1561    1.0000 </r>
       <r>   -1.1556    1.0000 </r>
       <r>   -1.0857    1.0000 </r>
       <r>   -1.0809    1.0000 </r>
       <r>   -0.9518    1.0000 </r>
       <r>   -0.9517    1.0000 </r>
       <r>   -0.9469    1.0000 </r>
       <r>   -0.9469    1.0000 </r>
       <r>   -0.9468    1.0000 </r>
       <r>   -0.9468    1.0000 </r>
       <r>   -0.9423    1.0000 </r>
       <r>   -0.9421    1.0000 </r>
       <r>   -0.9382    1.0000 </r>
       <r>   -0.9324    1.0000 </r>
       <r>   -0.9323    1.0000 </r>
       <r>   -0.9323    1.0000 </r>
       <r>   -0.9322    1.0000 </r>
       <r>   -0.9320    1.0000 </r>
       <r>   -0.9309    1.0000 </r>
       <r>   -0.9281    1.0000 </r>
       <r>   -0.7707    1.0000 </r>
       <r>   -0.7707    1.0000 </r>
       <r>   -0.7660    1.0000 </r>
       <r>   -0.7659    1.0000 </r>
       <r>    5.0205    0.0000 </r>
       <r>    5.0242    0.0000 </r>
       <r>    6.7152    0.0000 </r>
       <r>    6.7165    0.0000 </r>
       <r>    6.7166    0.0000 </r>
       <r>    6.7177    0.0000 </r>
       <r>    6.7182    0.0000 </r>
       <r>    6.7201    0.0000 </r>
       <r>    6.7201    0.0000 </r>
       <r>    6.7223    0.0000 </r>
       <r>    6.8403    0.0000 </r>
       <r>    6.8403    0.0000 </r>
       <r>    6.8417    0.0000 </r>
       <r>    6.8417    0.0000 </r>
       <r>    6.8447    0.0000 </r>
       <r>    6.8447    0.0000 </r>
       <r>    6.8462    0.0000 </r>
       <r>    6.8462    0.0000 </r>
       <r>    6.9696    0.0000 </r>
       <r>    6.9725    0.0000 </r>
       <r>    7.3591    0.0000 </r>
       <r>    7.3623    0.0000 </r>
       <r>    7.3628    0.0000 </r>
       <r>    7.3659    0.0000 </r>
       <r>    7.4774    0.0000 </r>
       <r>    7.4830    0.0000 </r>
       <r>    7.7116    0.0000 </r>
       <r>    7.7116    0.0000 </r>
       <r>    7.7176    0.0000 </r>
       <r>    7.7176    0.0000 </r>
       <r>    8.2621    0.0000 </r>
       <r>    8.2637    0.0000 </r>
       <r>    8.2637    0.0000 </r>
       <r>    8.2653    0.0000 </r>
       <r>    8.2671    0.0000 </r>
       <r>    8.2676    0.0000 </r>
       <r>    8.2682    0.0000 </r>
       <r>    8.2699    0.0000 </r>
       <r>    8.5343    0.0000 </r>
       <r>    8.5348    0.0000 </r>
       <r>    8.5355    0.0000 </r>
       <r>    8.5363    0.0000 </r>
       <r>    8.5364    0.0000 </r>
       <r>    8.5367    0.0000 </r>
       <r>    8.5374    0.0000 </r>
       <r>    8.5377    0.0000 </r>
       <r>    8.5380    0.0000 </r>
       <r>    8.5387    0.0000 </r>
       <r>    8.5399    0.0000 </r>
       <r>    8.5401    0.0000 </r>
       <r>    8.5413    0.0000 </r>
       <r>    8.5417    0.0000 </r>
       <r>    8.5428    0.0000 </r>
       <r>    8.5440    0.0000 </r>
       <r>    8.9455    0.0000 </r>
       <r>    8.9485    0.0000 </r>
       <r>    8.9485    0.0000 </r>
       <r>    8.9493    0.0000 </r>
       <r>    8.9507    0.0000 </r>
       <r>    8.9533    0.0000 </r>
       <r>    8.9534    0.0000 </r>
       <r>    8.9581    0.0000 </r>
       <r>    9.4950    0.0000 </r>
       <r>    9.5204    0.0000 </r>
      </set>
      <set comment="kpoint 4">
       <r>  -21.3021    1.0000 </r>
       <r>  -21.3006    1.0000 </r>
       <r>  -21.3006    1.0000 </r>
       <r>  -21.3003    1.0000 </r>
       <r>  -21.3000    1.0000 </r>
       <r>  -21.2999    1.0000 </r>
       <r>  -21.2998    1.0000 </r>
       <r>  -21.2992    1.0000 </r>
       <r>  -21.2947    1.0000 </r>
       <r>  -21.2936    1.0000 </r>
       <r>  -21.2936    1.0000 </r>
       <r>  -21.2925    1.0000 </r>
       <r>  -21.2921    1.0000 </r>
       <r>  -21.2917    1.0000 </r>
       <r>  -21.2917    1.0000 </r>
       <r>  -21.2916    1.0000 </r>
       <r>  -21.2915    1.0000 </r>
       <r>  -21.2915    1.0000 </r>
       <r>  -21.2909    1.0000 </r>
       <r>  -21.2909    1.0000 </r>
       <r>  -21.2893    1.0000 </r>
       <r>  -21.2890    1.0000 </r>
       <r>  -21.2889    1.0000 </r>
       <r>  -21.2887    1.0000 </r>
       <r>  -21.2880    1.0000 </r>
       <r>  -21.2880    1.0000 </r>
       <r>  -21.2877    1.0000 </r>
       <r>  -21.2877    1.0000 </r>
       <r>  -21.2876    1.0000 </r>
       <r>  -21.2869    1.0000 </r>
       <r>  -21.2852    1.0000 </r>
       <r>  -21.2845    1.0000 </r>
       <r>  -21.2845    1.0000 </r>
       <r>  -21.2841    1.0000 </r>
       <r>  -21.2840    1.0000 </r>
       <r>  -21.2840    1.0000 </r>
       <r>  -21.2840    1.0000 </r>
       <r>  -21.2837    1.0000 </r>
       <r>  -21.2829    1.0000 </r>
       <r>  -21.2829    1.0000 </r>
       <r>  -21.2814    1.0000 </r>
       <r>  -21.2814    1.0000 </r>
       <r>  -21.2809    1.0000 </r>
       <r>  -21.2808    1.0000 </r>
       <r>  -21.2806    1.0000 </r>
       <r>  -21.2801    1.0000 </r>
       <r>  -21.2789    1.0000 </r>
       <r>  -21.2789    1.0000 </r>
       <r>  -21.2785    1.0000 </r>
       <r>  -21.2783    1.0000 </r>
       <r>  -21.2782    1.0000 </r>
       <r>  -21.2776    1.0000 </r>
       <r>  -21.2775    1.0000 </r>
       <r>  -21.2774    1.0000 </r>
       <r>  -21.2770    1.0000 </r>
       <r>  -21.2768    1.0000 </r>
       <r>  -21.2767    1.0000 </r>
       <r>  -21.2766    1.0000 </r>
       <r>  -21.2762    1.0000 </r>
       <r>  -21.2761    1.0000 </r>
       <r>  -21.2760    1.0000 </r>
       <r>  -21.2760    1.0000 </r>
       <r>  -21.2759    1.0000 </r>
       <r>  -21.2759    1.0000 </r>
       <r>  -21.2752    1.0000 </r>
       <r>  -21.2749    1.0000 </r>
       <r>  -21.2749    1.0000 </r>
       <r>  -21.2748    1.0000 </r>
       <r>  -21.2747    1.0000 </r>
       <r>  -21.2741    1.0000 </r>
[...]
      </set>
     </set>
    </set>
   </array>
  </eigenvalues>
  <separator name="orbital magnetization" >
   <v name="MAGDIPOLOUT">      0.00000000      0.00000000      0.00000000</v>
  </separator>
  <dos>
   <i name="efermi">     -0.55193352 </i>
   <total>
    <array>
     <dimension dim="1">gridpoints</dimension>
     <dimension dim="2">spin</dimension>
     <field>energy</field>
     <field>total</field>
     <field>integrated</field>
     <set>
      <set comment="spin 1">
       <r>   -22.8466     0.0000     0.0000 </r>
       <r>   -22.7336     0.0000     0.0000 </r>
       <r>   -22.6206     0.0000     0.0000 </r>
       <r>   -22.5076     0.0000     0.0000 </r>
       <r>   -22.3945     0.0000     0.0000 </r>
       <r>   -22.2815     0.0000     0.0000 </r>
       <r>   -22.1685     0.0000     0.0000 </r>
       <r>   -22.0554     0.0000     0.0000 </r>
       <r>   -21.9424     0.0000     0.0000 </r>
       <r>   -21.8294     0.0000     0.0000 </r>
       <r>   -21.7164     0.0000     0.0000 </r>
       <r>   -21.6033     0.0000     0.0000 </r>
       <r>   -21.4903     0.0000     0.0000 </r>
       <r>   -21.3773     0.0000     0.0000 </r>
       <r>   -21.2643  1425.6193   161.1344 </r>
       <r>   -21.1512   273.0799   192.0000 </r>
       <r>   -21.0382     0.0000   192.0000 </r>
       <r>   -20.9252     0.0000   192.0000 </r>
       <r>   -20.8121     0.0000   192.0000 </r>
       <r>   -20.6991     0.0000   192.0000 </r>
       <r>   -20.5861     0.0000   192.0000 </r>
       <r>   -20.4731     0.0000   192.0000 </r>
       <r>   -20.3600     0.0000   192.0000 </r>
       <r>   -20.2470     0.0000   192.0000 </r>
       <r>   -20.1340     0.0000   192.0000 </r>
       <r>   -20.0209     0.0000   192.0000 </r>
       <r>   -19.9079     0.0000   192.0000 </r>
       <r>   -19.7949     0.0000   192.0000 </r>
       <r>   -19.6819     0.0000   192.0000 </r>
       <r>   -19.5688     0.0000   192.0000 </r>
       <r>   -19.4558     0.0000   192.0000 </r>
       <r>   -19.3428     0.0000   192.0000 </r>
       <r>   -19.2298     0.0000   192.0000 </r>
       <r>   -19.1167     0.0000   192.0000 </r>
       <r>   -19.0037     0.0000   192.0000 </r>
       <r>   -18.8907     0.0000   192.0000 </r>
       <r>   -18.7776     0.0000   192.0000 </r>
       <r>   -18.6646     0.0000   192.0000 </r>
       <r>   -18.5516     0.0000   192.0000 </r>
       <r>   -18.4386     0.0000   192.0000 </r>
       <r>   -18.3255     0.0000   192.0000 </r>
       <r>   -18.2125     0.0000   192.0000 </r>
       <r>   -18.0995     0.0000   192.0000 </r>
       <r>   -17.9865     0.0000   192.0000 </r>
       <r>   -17.8734     0.0000   192.0000 </r>
       <r>   -17.7604     0.0000   192.0000 </r>
       <r>   -17.6474     0.0000   192.0000 </r>
       <r>   -17.5343     0.0000   192.0000 </r>
       <r>   -17.4213     0.0000   192.0000 </r>
       <r>   -17.3083     0.0000   192.0000 </r>
       <r>   -17.1953     0.0000   192.0000 </r>
       <r>   -17.0822     0.0000   192.0000 </r>
       <r>   -16.9692     0.0000   192.0000 </r>
       <r>   -16.8562     0.0000   192.0000 </r>
       <r>   -16.7431     0.0000   192.0000 </r>
       <r>   -16.6301     0.0000   192.0000 </r>
       <r>   -16.5171     0.0000   192.0000 </r>
       <r>   -16.4041     0.0000   192.0000 </r>
       <r>   -16.2910     0.0000   192.0000 </r>
       <r>   -16.1780     0.0000   192.0000 </r>
       <r>   -16.0650     0.0000   192.0000 </r>
       <r>   -15.9520     0.0000   192.0000 </r>
       <r>   -15.8389     0.0000   192.0000 </r>
       <r>   -15.7259     0.0000   192.0000 </r>
       <r>   -15.6129     0.0000   192.0000 </r>
       <r>   -15.4998     0.0000   192.0000 </r>
       <r>   -15.3868     0.0000   192.0000 </r>
       <r>   -15.2738     0.0000   192.0000 </r>
       <r>   -15.1608     0.0000   192.0000 </r>
       <r>   -15.0477     0.0000   192.0000 </r>
       <r>   -14.9347     0.0000   192.0000 </r>
       <r>   -14.8217     0.0000   192.0000 </r>
       <r>   -14.7086     0.0000   192.0000 </r>
       <r>   -14.5956     0.0000   192.0000 </r>
       <r>   -14.4826     0.0000   192.0000 </r>
       <r>   -14.3696     0.0000   192.0000 </r>
       <r>   -14.2565     0.0000   192.0000 </r>
       <r>   -14.1435     0.0000   192.0000 </r>
       <r>   -14.0305     0.0000   192.0000 </r>
       <r>   -13.9175     0.0000   192.0000 </r>
       <r>   -13.8044     0.0000   192.0000 </r>
       <r>   -13.6914     0.0000   192.0000 </r>
       <r>   -13.5784     0.0000   192.0000 </r>
       <r>   -13.4653     0.0000   192.0000 </r>
       <r>   -13.3523     1.4563   192.1646 </r>
       <r>   -13.2393    22.0494   194.6568 </r>
       <r>   -13.1263    47.7781   200.0573 </r>
       <r>   -13.0132   132.6931   215.0554 </r>
       <r>   -12.9002   360.0049   255.7465 </r>
       <r>   -12.7872     2.2372   256.0000 </r>
       <r>   -12.6742     0.0000   256.0000 </r>
       <r>   -12.5611     0.0000   256.0000 </r>
       <r>   -12.4481     0.0000   256.0000 </r>
       <r>   -12.3351     0.0000   256.0000 </r>
       <r>   -12.2220     0.0000   256.0000 </r>
       <r>   -12.1090     0.0000   256.0000 </r>
       <r>   -11.9960     0.0000   256.0000 </r>
       <r>   -11.8830     0.0000   256.0000 </r>
       <r>   -11.7699     0.0000   256.0000 </r>
       <r>   -11.6569     0.0000   256.0000 </r>
       <r>   -11.5439     0.0000   256.0000 </r>
       <r>   -11.4308     0.0000   256.0000 </r>
       <r>   -11.3178     0.0000   256.0000 </r>
       <r>   -11.2048     0.0000   256.0000 </r>
       <r>   -11.0918     0.0000   256.0000 </r>
       <r>   -10.9787     0.0000   256.0000 </r>
       <r>   -10.8657     0.0000   256.0000 </r>
       <r>   -10.7527     0.0000   256.0000 </r>
       <r>   -10.6397     0.0000   256.0000 </r>
       <r>   -10.5266     0.0000   256.0000 </r>
       <r>   -10.4136     0.0000   256.0000 </r>
       <r>   -10.3006     0.0000   256.0000 </r>
       <r>   -10.1875     0.0000   256.0000 </r>
       <r>   -10.0745     0.0000   256.0000 </r>
       <r>    -9.9615     0.0000   256.0000 </r>
       <r>    -9.8485     0.0000   256.0000 </r>
       <r>    -9.7354     0.0000   256.0000 </r>
       <r>    -9.6224     0.0000   256.0000 </r>
       <r>    -9.5094     0.0000   256.0000 </r>
       <r>    -9.3963     0.0000   256.0000 </r>
       <r>    -9.2833     0.0000   256.0000 </r>
       <r>    -9.1703     0.0000   256.0000 </r>
       <r>    -9.0573     0.0000   256.0000 </r>
       <r>    -8.9442     0.0000   256.0000 </r>
       <r>    -8.8312     0.0000   256.0000 </r>
       <r>    -8.7182     0.0000   256.0000 </r>
       <r>    -8.6052     0.0000   256.0000 </r>
       <r>    -8.4921     0.0000   256.0000 </r>
       <r>    -8.3791     0.0000   256.0000 </r>
       <r>    -8.2661     0.0000   256.0000 </r>
       <r>    -8.1530     0.0000   256.0000 </r>
       <r>    -8.0400     0.0000   256.0000 </r>
       <r>    -7.9270     0.0000   256.0000 </r>
       <r>    -7.8140     0.0000   256.0000 </r>
       <r>    -7.7009     0.0000   256.0000 </r>
       <r>    -7.5879     0.0000   256.0000 </r>
       <r>    -7.4749     0.0000   256.0000 </r>
       <r>    -7.3619     0.0000   256.0000 </r>
       <r>    -7.2488     0.0000   256.0000 </r>
       <r>    -7.1358     0.0000   256.0000 </r>
       <r>    -7.0228     0.0000   256.0000 </r>
       <r>    -6.9097     0.0000   256.0000 </r>
       <r>    -6.7967     0.0000   256.0000 </r>
       <r>    -6.6837     0.0000   256.0000 </r>
       <r>    -6.5707     0.0000   256.0000 </r>
       <r>    -6.4576     0.0000   256.0000 </r>
       <r>    -6.3446     0.0000   256.0000 </r>
       <r>    -6.2316     0.0000   256.0000 </r>
       <r>    -6.1185     0.0000   256.0000 </r>
       <r>    -6.0055     0.0000   256.0000 </r>
       <r>    -5.8925     0.0000   256.0000 </r>
       <r>    -5.7795     0.0000   256.0000 </r>
       <r>    -5.6664     0.0000   256.0000 </r>
       <r>    -5.5534     0.0000   256.0000 </r>
       <r>    -5.4404     0.0000   256.0000 </r>
       <r>    -5.3274     0.0000   256.0000 </r>
       <r>    -5.2143     0.0000   256.0000 </r>
       <r>    -5.1013     0.0000   256.0000 </r>
       <r>    -4.9883     0.0000   256.0000 </r>
       <r>    -4.8752     0.0000   256.0000 </r>
       <r>    -4.7622     0.0000   256.0000 </r>
       <r>    -4.6492     0.0000   256.0000 </r>
       <r>    -4.5362     0.0000   256.0000 </r>
       <r>    -4.4231     0.0000   256.0000 </r>
       <r>    -4.3101     0.0000   256.0000 </r>
       <r>    -4.1971     0.0000   256.0000 </r>
       <r>    -4.0840     0.0000   256.0000 </r>
       <r>    -3.9710     0.0000   256.0000 </r>
       <r>    -3.8580     0.0000   256.0000 </r>
       <r>    -3.7450     0.0000   256.0000 </r>
       <r>    -3.6319     0.0000   256.0000 </r>
       <r>    -3.5189     0.0000   256.0000 </r>
       <r>    -3.4059     0.0000   256.0000 </r>
       <r>    -3.2929     0.0000   256.0000 </r>
       <r>    -3.1798     0.0000   256.0000 </r>
       <r>    -3.0668     0.0000   256.0000 </r>
       <r>    -2.9538     0.0000   256.0000 </r>
       <r>    -2.8407     0.0000   256.0000 </r>
       <r>    -2.7277     0.2216   256.0251 </r>
       <r>    -2.6147     8.6257   257.0000 </r>
       <r>    -2.5017    30.5325   260.4510 </r>
       <r>    -2.3886    79.9142   269.4835 </r>
       <r>    -2.2756    85.6857   279.1684 </r>
       <r>    -2.1626   152.8395   296.4440 </r>
       <r>    -2.0496    69.0626   304.2500 </r>
       <r>    -1.9365    58.4649   310.8582 </r>
       <r>    -1.8235    66.2349   318.3458 </r>
       <r>    -1.7105    65.5077   325.7500 </r>
       <r>    -1.5974     0.0000   325.7500 </r>
       <r>    -1.4844    85.5828   335.4232 </r>
       <r>    -1.3714   185.3155   356.3690 </r>
       <r>    -1.2584    21.7735   358.8300 </r>
       <r>    -1.1453   260.7182   388.2984 </r>
       <r>    -1.0323   132.2790   403.2502 </r>
       <r>    -0.9193   262.3814   432.9068 </r>
       <r>    -0.8062    59.7469   439.6603 </r>
       <r>    -0.6932    67.2817   447.2650 </r>
       <r>    -0.5802     6.4992   448.0000 </r>
       <r>    -0.4672     0.0000   448.0000 </r>
       <r>    -0.3541     0.0000   448.0000 </r>
       <r>    -0.2411     0.0000   448.0000 </r>
       <r>    -0.1281     0.0000   448.0000 </r>
       <r>    -0.0151     0.0000   448.0000 </r>
       <r>     0.0980     0.0000   448.0000 </r>
       <r>     0.2110     0.0000   448.0000 </r>
       <r>     0.3240     0.0000   448.0000 </r>
       <r>     0.4371     0.0000   448.0000 </r>
       <r>     0.5501     0.0000   448.0000 </r>
       <r>     0.6631     0.0000   448.0000 </r>
       <r>     0.7761     0.0000   448.0000 </r>
       <r>     0.8892     0.0000   448.0000 </r>
       <r>     1.0022     0.0000   448.0000 </r>
       <r>     1.1152     0.0000   448.0000 </r>
       <r>     1.2283     0.0000   448.0000 </r>
       <r>     1.3413     0.0000   448.0000 </r>
       <r>     1.4543     0.0000   448.0000 </r>
       <r>     1.5673     0.0000   448.0000 </r>
       <r>     1.6804     0.0000   448.0000 </r>
       <r>     1.7934     0.0000   448.0000 </r>
       <r>     1.9064     0.0000   448.0000 </r>
       <r>     2.0194     0.0000   448.0000 </r>
       <r>     2.1325     0.0000   448.0000 </r>
       <r>     2.2455     0.0000   448.0000 </r>
       <r>     2.3585     0.0000   448.0000 </r>
       <r>     2.4716     0.0000   448.0000 </r>
       <r>     2.5846     0.0000   448.0000 </r>
       <r>     2.6976     0.0000   448.0000 </r>
       <r>     2.8106     0.0000   448.0000 </r>
       <r>     2.9237     0.0000   448.0000 </r>
       <r>     3.0367     0.0000   448.0000 </r>
       <r>     3.1497     0.0000   448.0000 </r>
       <r>     3.2628     0.0000   448.0000 </r>
       <r>     3.3758     0.0000   448.0000 </r>
       <r>     3.4888     0.0000   448.0000 </r>
       <r>     3.6018     0.0000   448.0000 </r>
       <r>     3.7149     0.0000   448.0000 </r>
       <r>     3.8279     0.0000   448.0000 </r>
       <r>     3.9409     0.0000   448.0000 </r>
       <r>     4.0539     0.0000   448.0000 </r>
       <r>     4.1670     0.0000   448.0000 </r>
       <r>     4.2800     0.0000   448.0000 </r>
       <r>     4.3930     2.2116   448.2500 </r>
       <r>     4.5061     0.0000   448.2500 </r>
       <r>     4.6191     0.0000   448.2500 </r>
       <r>     4.7321     0.0000   448.2500 </r>
       <r>     4.8451     0.0000   448.2500 </r>
       <r>     4.9582     0.0000   448.2500 </r>
       <r>     5.0712    13.2671   449.7496 </r>
       <r>     5.1842     0.0000   449.7500 </r>
       <r>     5.2972     0.0000   449.7500 </r>
       <r>     5.4103     0.0000   449.7500 </r>
       <r>     5.5233     3.4309   450.1378 </r>
       <r>     5.6363    23.1113   452.7500 </r>
       <r>     5.7494     0.0000   452.7500 </r>
       <r>     5.8624    17.4135   454.7182 </r>
       <r>     5.9754     0.2813   454.7500 </r>
       <r>     6.0884     0.0000   454.7500 </r>
       <r>     6.2015     0.0000   454.7500 </r>
       <r>     6.3145     0.0011   454.7501 </r>
       <r>     6.4275    14.2724   456.3633 </r>
       <r>     6.5406     7.8448   457.2500 </r>
       <r>     6.6536    44.8522   462.3195 </r>
       <r>     6.7666    61.2977   469.2479 </r>
       <r>     6.8796    59.4417   475.9677 </r>
       <r>     6.9927    12.7070   477.4040 </r>
       <r>     7.1057     0.8493   477.5000 </r>
       <r>     7.2187     5.3040   478.0995 </r>
       <r>     7.3317     1.7429   478.2965 </r>
       <r>     7.4448    82.0185   487.5669 </r>
       <r>     7.5578   168.0106   506.5573 </r>
       <r>     7.6708     1.7356   506.7534 </r>
       <r>     7.7839    26.5118   509.7500 </r>
       <r>     7.8969     0.2852   509.7822 </r>
       <r>     8.0099    52.7992   515.7500 </r>
       <r>     8.1229     0.0090   515.7510 </r>
       <r>     8.2360    14.2363   517.3601 </r>
       <r>     8.3490    91.9193   527.7495 </r>
       <r>     8.4620     0.0000   527.7500 </r>
       <r>     8.5751   152.7684   545.0171 </r>
       <r>     8.6881     6.4847   545.7500 </r>
       <r>     8.8011     0.0000   545.7500 </r>
       <r>     8.9141    84.9218   555.3485 </r>
       <r>     9.0272   122.6084   569.2067 </r>
       <r>     9.1402     2.5954   569.5000 </r>
       <r>     9.2532    23.4383   572.1492 </r>
       <r>     9.3662    20.7985   574.5000 </r>
       <r>     9.4793     1.3866   574.6567 </r>
       <r>     9.5923    11.8845   576.0000 </r>
       <r>     9.7053     0.0000   576.0000 </r>
       <r>     9.8184     0.0000   576.0000 </r>
       <r>     9.9314     0.0000   576.0000 </r>
       <r>    10.0444     0.0000   576.0000 </r>
       <r>    10.1574     0.0000   576.0000 </r>
       <r>    10.2705     0.0000   576.0000 </r>
       <r>    10.3835     0.0000   576.0000 </r>
       <r>    10.4965     0.0000   576.0000 </r>
       <r>    10.6095     0.0000   576.0000 </r>
       <r>    10.7226     0.0000   576.0000 </r>
       <r>    10.8356     0.0000   576.0000 </r>
       <r>    10.9486     0.0000   576.0000 </r>
       <r>    11.0617     0.0000   576.0000 </r>
      </set>
     </set>
    </array>
   </total>
  </dos>
 </calculation>
 <structure name="finalpos" >
  <crystal>
   <varray name="basis" >
    <v>      11.20400236       0.00000000       0.00000000 </v>
    <v>       0.00000000      11.20400236       0.00000000 </v>
    <v>       0.00000000       0.00000000      11.20400236 </v>
   </varray>
   <i name="volume">   1406.43470641 </i>
   <varray name="rec_basis" >
    <v>       0.08925382       0.00000000       0.00000000 </v>
    <v>       0.00000000       0.08925382       0.00000000 </v>
    <v>       0.00000000       0.00000000       0.08925382 </v>
   </varray>
  </crystal>
  <varray name="positions" >
   <v>       0.00267761       0.00000000       0.00000000 </v>
   <v>       0.25000000       0.25267761       0.00000000 </v>
   <v>       0.25000000       0.00000000       0.25000000 </v>
   <v>       0.00000000       0.25000000       0.25000000 </v>
   <v>       0.00000000       0.00000000       0.50000000 </v>
   <v>       0.25000000       0.25000000       0.50000000 </v>
   <v>       0.25000000       0.00000000       0.75000000 </v>
   <v>       0.00000000       0.25000000       0.75000000 </v>
   <v>       0.00000000       0.50000000       0.00000000 </v>
   <v>       0.25000000       0.75000000       0.00000000 </v>
   <v>       0.25000000       0.50000000       0.25000000 </v>
   <v>       0.00000000       0.75000000       0.25000000 </v>
   <v>       0.00000000       0.50000000       0.50000000 </v>
   <v>       0.25000000       0.75000000       0.50000000 </v>
   <v>       0.25000000       0.50000000       0.75000000 </v>
   <v>       0.00000000       0.75000000       0.75000000 </v>
   <v>       0.50000000       0.00000000       0.00000000 </v>
   <v>       0.75000000       0.25000000       0.00000000 </v>
   <v>       0.75000000       0.00000000       0.25000000 </v>
   <v>       0.50000000       0.25000000       0.25000000 </v>
   <v>       0.50000000       0.00000000       0.50000000 </v>
   <v>       0.75000000       0.25000000       0.50000000 </v>
   <v>       0.75000000       0.00000000       0.75000000 </v>
   <v>       0.50000000       0.25000000       0.75000000 </v>
   <v>       0.50000000       0.50000000       0.00000000 </v>
   <v>       0.75000000       0.75000000       0.00000000 </v>
   <v>       0.75000000       0.50000000       0.25000000 </v>
   <v>       0.50000000       0.75000000       0.25000000 </v>
   <v>       0.50000000       0.50000000       0.50000000 </v>
   <v>       0.75000000       0.75000000       0.50000000 </v>
   <v>       0.75000000       0.50000000       0.75000000 </v>
   <v>       0.50000000       0.75000000       0.75000000 </v>
   <v>       0.25000000       0.25000000       0.25000000 </v>
   <v>       0.00000000       0.00000000       0.25000000 </v>
   <v>       0.00000000       0.25000000       0.00000000 </v>
   <v>       0.25000000       0.00000000       0.00000000 </v>
   <v>       0.25000000       0.25000000       0.75000000 </v>
   <v>       0.00000000       0.00000000       0.75000000 </v>
   <v>       0.00000000       0.25000000       0.50000000 </v>
   <v>       0.25000000       0.00000000       0.50000000 </v>
   <v>       0.25000000       0.75000000       0.25000000 </v>
   <v>       0.00000000       0.50000000       0.25000000 </v>
   <v>       0.00000000       0.75000000       0.00000000 </v>
   <v>       0.25000000       0.50000000       0.00000000 </v>
   <v>       0.25000000       0.75000000       0.75000000 </v>
   <v>       0.00000000       0.50000000       0.75000000 </v>
   <v>       0.00000000       0.75000000       0.50000000 </v>
   <v>       0.25000000       0.50000000       0.50000000 </v>
   <v>       0.75000000       0.25000000       0.25000000 </v>
   <v>       0.50000000       0.00000000       0.25000000 </v>
   <v>       0.50000000       0.25000000       0.00000000 </v>
   <v>       0.75000000       0.00000000       0.00000000 </v>
   <v>       0.75000000       0.25000000       0.75000000 </v>
   <v>       0.50000000       0.00000000       0.75000000 </v>
   <v>       0.50000000       0.25000000       0.50000000 </v>
   <v>       0.75000000       0.00000000       0.50000000 </v>
   <v>       0.75000000       0.75000000       0.25000000 </v>
   <v>       0.50000000       0.50000000       0.25000000 </v>
   <v>       0.50000000       0.75000000       0.00000000 </v>
   <v>       0.75000000       0.50000000       0.00000000 </v>
   <v>       0.75000000       0.75000000       0.75000000 </v>
   <v>       0.50000000       0.50000000       0.75000000 </v>
   <v>       0.50000000       0.75000000       0.50000000 </v>
   <v>       0.75000000       0.50000000       0.50000000 </v>
  </varray>
 </structure>
</modeling>
