  64  64   0   0
  0.2019411E+02  0.1089268E-08  0.1089268E-08  0.1089268E-08  0.5000000E-15
  1.000000000000000E-004
  CAR 
 unknown system                          
      9.93017542     -6.99568835  301      5.81860101      1.00000000
     -6.996  0.0000E+00  0.0000E+00
     -6.939  0.0000E+00  0.0000E+00
     -6.883  0.0000E+00  0.0000E+00
     -6.826  0.0000E+00  0.0000E+00
     -6.770  0.0000E+00  0.0000E+00
     -6.714  0.0000E+00  0.0000E+00
     -6.657  0.0000E+00  0.0000E+00
     -6.601  0.0000E+00  0.0000E+00
     -6.544  0.0000E+00  0.0000E+00
     -6.488  0.0000E+00  0.0000E+00
     -6.431  0.0000E+00  0.0000E+00
     -6.375  0.0000E+00  0.0000E+00
     -6.319  0.1475E-09  0.8320E-11
     -6.262  0.2465E-01  0.1391E-02
     -6.206  0.4081E+01  0.2316E+00
     -6.149  0.3254E+00  0.2500E+00
     -6.093  0.1179E-06  0.2500E+00
     -6.037  0.8374E-07  0.2500E+00
     -5.980  0.9126E+00  0.3015E+00
     -5.924  0.2527E+02  0.1727E+01
     -5.867  0.4017E+00  0.1750E+01
     -5.811  0.9973E-08  0.1750E+01
     -5.754  0.6619E-04  0.1750E+01
     -5.698  0.1246E+02  0.2453E+01
     -5.642  0.4068E+02  0.4748E+01
     -5.585  0.2963E-01  0.4750E+01
     -5.529  0.5018E-10  0.4750E+01
     -5.472  0.4140E-01  0.4752E+01
     -5.416  0.2918E+02  0.6399E+01
     -5.360  0.6229E+01  0.6750E+01
     -5.303  0.1636E-04  0.6750E+01
     -5.247  0.4906E-10  0.6750E+01
     -5.190  0.3949E-01  0.6752E+01
     -5.134  0.2237E+02  0.8015E+01
     -5.077  0.4173E+01  0.8250E+01
     -5.021  0.8241E-05  0.8250E+01
     -4.965  0.4321E-03  0.8250E+01
     -4.908  0.3312E+02  0.1012E+02
     -4.852  0.7320E+02  0.1425E+02
     -4.795  0.2680E-01  0.1425E+02
     -4.739  0.2797E-03  0.1425E+02
     -4.682  0.2981E+02  0.1593E+02
     -4.626  0.7650E+02  0.2025E+02
     -4.570  0.3706E-01  0.2025E+02
     -4.513  0.3597E-11  0.2025E+02
     -4.457  0.0000E+00  0.2025E+02
     -4.400  0.0000E+00  0.2025E+02
     -4.344  0.0000E+00  0.2025E+02
     -4.288  0.8588E-10  0.2025E+02
     -4.231  0.6912E-01  0.2025E+02
     -4.175  0.4399E+02  0.2274E+02
     -4.118  0.9117E+01  0.2325E+02
     -4.062  0.4047E+02  0.2553E+02
     -4.005  0.6586E+02  0.2925E+02
     -3.949  0.1572E-01  0.2925E+02
     -3.893  0.1143E+02  0.2990E+02
     -3.836  0.2246E+02  0.3116E+02
     -3.780  0.1042E+02  0.3175E+02
     -3.723  0.2724E-03  0.3175E+02
     -3.667  0.3831E+01  0.3197E+02
     -3.611  0.1009E+03  0.3766E+02
     -3.554  0.1970E+01  0.3777E+02
     -3.498  0.9443E+02  0.4310E+02
     -3.441  0.1154E+02  0.4375E+02
     -3.385  0.5438E+01  0.4406E+02
     -3.328  0.9988E+02  0.4969E+02
     -3.272  0.1030E+01  0.4975E+02
     -3.216  0.1504E-07  0.4975E+02
     -3.159  0.1534E+00  0.4976E+02
     -3.103  0.8905E+02  0.5478E+02
     -3.046  0.1715E+02  0.5575E+02
     -2.990  0.3781E-04  0.5575E+02
     -2.933  0.0000E+00  0.5575E+02
     -2.877  0.0000E+00  0.5575E+02
     -2.821  0.0000E+00  0.5575E+02
     -2.764  0.0000E+00  0.5575E+02
     -2.708  0.0000E+00  0.5575E+02
     -2.651  0.0000E+00  0.5575E+02
     -2.595  0.4841E-08  0.5575E+02
     -2.539  0.4403E+00  0.5577E+02
     -2.482  0.4972E+02  0.5858E+02
     -2.426  0.3016E+01  0.5875E+02
     -2.369  0.7079E-06  0.5875E+02
     -2.313  0.0000E+00  0.5875E+02
     -2.256  0.0000E+00  0.5875E+02
     -2.200  0.3761E-11  0.5875E+02
     -2.144  0.1161E-01  0.5875E+02
     -2.087  0.1967E+02  0.5986E+02
     -2.031  0.2501E+02  0.6127E+02
     -1.974  0.8816E+02  0.6625E+02
     -1.918  0.4277E+02  0.6866E+02
     -1.862  0.1049E+02  0.6925E+02
     -1.805  0.4064E-04  0.6925E+02
     -1.749  0.0000E+00  0.6925E+02
     -1.692  0.0000E+00  0.6925E+02
     -1.636  0.0000E+00  0.6925E+02
     -1.579  0.2096E-04  0.6925E+02
     -1.523  0.9006E+01  0.6976E+02
     -1.467  0.4410E+02  0.7225E+02
     -1.410  0.6614E-01  0.7225E+02
     -1.354  0.2522E-07  0.7225E+02
     -1.297  0.4434E+00  0.7228E+02
     -1.241  0.1690E+02  0.7323E+02
     -1.184  0.3834E+00  0.7325E+02
     -1.128  0.3668E-01  0.7325E+02
     -1.072  0.7630E+02  0.7756E+02
     -1.015  0.3001E+02  0.7925E+02
     -0.959  0.2905E-03  0.7925E+02
     -0.902  0.3149E-01  0.7925E+02
     -0.846  0.7474E+02  0.8347E+02
     -0.790  0.3158E+02  0.8525E+02
     -0.733  0.4014E-02  0.8525E+02
     -0.677  0.8908E+02  0.9028E+02
     -0.620  0.1236E+03  0.9725E+02
     -0.564  0.2148E-01  0.9725E+02
     -0.507  0.1768E-11  0.9725E+02
     -0.451  0.0000E+00  0.9725E+02
     -0.395  0.0000E+00  0.9725E+02
     -0.338  0.3211E-07  0.9725E+02
     -0.282  0.1409E+01  0.9733E+02
     -0.225  0.1007E+03  0.1030E+03
     -0.169  0.4247E+01  0.1032E+03
     -0.113  0.8008E-06  0.1033E+03
     -0.056  0.1339E+01  0.1033E+03
      0.000  0.2500E+02  0.1047E+03
      0.057  0.2519E+00  0.1047E+03
      0.113  0.3170E-08  0.1048E+03
      0.170  0.9984E-03  0.1048E+03
      0.226  0.2321E+02  0.1061E+03
      0.282  0.2996E+02  0.1077E+03
      0.339  0.3809E-02  0.1078E+03
      0.395  0.7079E+01  0.1081E+03
      0.452  0.9855E+02  0.1137E+03
      0.508  0.7139E+00  0.1137E+03
      0.565  0.6070E-08  0.1138E+03
      0.621  0.0000E+00  0.1138E+03
      0.677  0.0000E+00  0.1138E+03
      0.734  0.0000E+00  0.1138E+03
      0.790  0.0000E+00  0.1138E+03
      0.847  0.0000E+00  0.1138E+03
      0.903  0.0000E+00  0.1138E+03
      0.959  0.0000E+00  0.1138E+03
      1.016  0.0000E+00  0.1138E+03
      1.072  0.0000E+00  0.1138E+03
      1.129  0.0000E+00  0.1138E+03
      1.185  0.0000E+00  0.1138E+03
      1.242  0.0000E+00  0.1138E+03
      1.298  0.7275E-07  0.1138E+03
      1.354  0.1333E+01  0.1138E+03
      1.411  0.9247E+02  0.1190E+03
      1.467  0.1472E+03  0.1273E+03
      1.524  0.2491E+02  0.1287E+03
      1.580  0.1335E-03  0.1288E+03
      1.637  0.0000E+00  0.1288E+03
      1.693  0.1310E-05  0.1288E+03
      1.749  0.2830E+01  0.1289E+03
      1.806  0.3381E+02  0.1308E+03
      1.862  0.5086E+02  0.1337E+03
      1.919  0.9523E+01  0.1342E+03
      1.975  0.4469E+02  0.1367E+03
      2.031  0.7791E-01  0.1367E+03
      2.088  0.1774E-03  0.1368E+03
      2.144  0.2610E+02  0.1382E+03
      2.201  0.1036E+03  0.1441E+03
      2.257  0.1074E+03  0.1501E+03
      2.314  0.1230E+03  0.1571E+03
      2.370  0.9175E+02  0.1622E+03
      2.426  0.1980E+00  0.1622E+03
      2.483  0.3063E-09  0.1622E+03
      2.539  0.0000E+00  0.1622E+03
      2.596  0.0000E+00  0.1622E+03
      2.652  0.0000E+00  0.1622E+03
      2.708  0.0000E+00  0.1622E+03
      2.765  0.5393E-08  0.1623E+03
      2.821  0.3126E+00  0.1623E+03
      2.878  0.2514E+02  0.1637E+03
      2.934  0.4696E+02  0.1663E+03
      2.991  0.1506E+03  0.1748E+03
      3.047  0.6893E+02  0.1787E+03
      3.103  0.6523E+02  0.1824E+03
      3.160  0.9475E+02  0.1877E+03
      3.216  0.1422E+02  0.1886E+03
      3.273  0.1074E+03  0.1946E+03
      3.329  0.3793E+02  0.1967E+03
      3.386  0.1592E-01  0.1967E+03
      3.442  0.2243E-02  0.1968E+03
      3.498  0.4754E+02  0.1994E+03
      3.555  0.1492E+03  0.2079E+03
      3.611  0.1593E+02  0.2087E+03
      3.668  0.2774E-04  0.2088E+03
      3.724  0.8500E-08  0.2088E+03
      3.780  0.5403E+00  0.2088E+03
      3.837  0.5556E+02  0.2119E+03
      3.893  0.1024E+03  0.2177E+03
      3.950  0.9903E+00  0.2177E+03
      4.006  0.9033E-03  0.2178E+03
      4.063  0.2329E+02  0.2191E+03
      4.119  0.8497E+02  0.2239E+03
      4.175  0.5126E+02  0.2267E+03
      4.232  0.1483E+00  0.2268E+03
      4.288  0.8874E+02  0.2318E+03
      4.345  0.2107E+02  0.2330E+03
      4.401  0.7321E+02  0.2371E+03
      4.457  0.9486E+02  0.2424E+03
      4.514  0.3586E+02  0.2445E+03
      4.570  0.1402E+02  0.2452E+03
      4.627  0.4036E-03  0.2452E+03
      4.683  0.0000E+00  0.2452E+03
      4.740  0.0000E+00  0.2452E+03
      4.796  0.5387E-10  0.2453E+03
      4.852  0.6008E-01  0.2453E+03
      4.909  0.4400E+02  0.2477E+03
      4.965  0.7337E+02  0.2519E+03
      5.022  0.6638E+01  0.2522E+03
      5.078  0.5549E-05  0.2522E+03
      5.135  0.0000E+00  0.2522E+03
      5.191  0.0000E+00  0.2522E+03
      5.247  0.0000E+00  0.2522E+03
      5.304  0.9273E-13  0.2522E+03
      5.360  0.2561E-02  0.2523E+03
      5.417  0.2817E+02  0.2538E+03
      5.473  0.2500E+02  0.2552E+03
      5.529  0.1368E-02  0.2552E+03
      5.586  0.0000E+00  0.2552E+03
      5.642  0.3948E-04  0.2553E+03
      5.699  0.3854E+01  0.2555E+03
      5.755  0.9435E+01  0.2560E+03
      5.812  0.4144E-02  0.2560E+03
      5.868  0.5598E-12  0.2560E+03
      5.924  0.0000E+00  0.2560E+03
      5.981  0.0000E+00  0.2560E+03
      6.037  0.0000E+00  0.2560E+03
      6.094  0.0000E+00  0.2560E+03
      6.150  0.2263E-05  0.2560E+03
      6.206  0.2851E+01  0.2562E+03
      6.263  0.2366E+02  0.2575E+03
      6.319  0.1790E+02  0.2585E+03
      6.376  0.8763E+01  0.2590E+03
      6.432  0.1305E-03  0.2590E+03
      6.489  0.0000E+00  0.2590E+03
      6.545  0.0000E+00  0.2590E+03
      6.601  0.0000E+00  0.2590E+03
      6.658  0.1905E-08  0.2590E+03
      6.714  0.1990E+00  0.2590E+03
      6.771  0.2492E+02  0.2604E+03
      6.827  0.4888E+02  0.2632E+03
      6.884  0.5755E+01  0.2635E+03
      6.940  0.4758E-05  0.2635E+03
      6.996  0.0000E+00  0.2635E+03
      7.053  0.3687E-05  0.2635E+03
      7.109  0.8351E+01  0.2640E+03
      7.166  0.1397E+03  0.2719E+03
      7.222  0.2606E+01  0.2720E+03
      7.278  0.3497E-06  0.2720E+03
      7.335  0.0000E+00  0.2720E+03
      7.391  0.0000E+00  0.2720E+03
      7.448  0.0000E+00  0.2720E+03
      7.504  0.3128E-03  0.2720E+03
      7.561  0.3545E+02  0.2740E+03
      7.617  0.1785E+03  0.2841E+03
      7.673  0.5936E+02  0.2874E+03
      7.730  0.1408E+01  0.2875E+03
      7.786  0.4753E-06  0.2875E+03
      7.843  0.3481E+01  0.2877E+03
      7.899  0.1011E+03  0.2934E+03
      7.955  0.6996E+01  0.2938E+03
      8.012  0.1000E+03  0.2994E+03
      8.068  0.5310E+02  0.3024E+03
      8.125  0.1074E+03  0.3085E+03
      8.181  0.9353E-01  0.3085E+03
      8.238  0.2580E+02  0.3100E+03
      8.294  0.9358E+02  0.3152E+03
      8.350  0.2185E+00  0.3152E+03
      8.407  0.5164E-06  0.3153E+03
      8.463  0.2736E+01  0.3154E+03
      8.520  0.4995E+02  0.3182E+03
      8.576  0.4922E+00  0.3182E+03
      8.633  0.1206E-01  0.3183E+03
      8.689  0.3825E+02  0.3204E+03
      8.745  0.5194E+02  0.3233E+03
      8.802  0.2856E+01  0.3235E+03
      8.858  0.1077E-04  0.3235E+03
      8.915  0.0000E+00  0.3235E+03
      8.971  0.0000E+00  0.3235E+03
      9.027  0.0000E+00  0.3235E+03
      9.084  0.2806E-06  0.3235E+03
      9.140  0.6878E+00  0.3235E+03
      9.197  0.8129E+01  0.3240E+03
      9.253  0.4552E-01  0.3240E+03
      9.310  0.2477E-09  0.3240E+03
      9.366  0.0000E+00  0.3240E+03
      9.422  0.0000E+00  0.3240E+03
      9.479  0.0000E+00  0.3240E+03
      9.535  0.0000E+00  0.3240E+03
      9.592  0.0000E+00  0.3240E+03
      9.648  0.0000E+00  0.3240E+03
      9.704  0.0000E+00  0.3240E+03
      9.761  0.0000E+00  0.3240E+03
      9.817  0.0000E+00  0.3240E+03
      9.874  0.0000E+00  0.3240E+03
      9.930  0.0000E+00  0.3240E+03
