   64   64    1    1
  0.2019411E+02  0.1089268E-08  0.1089268E-08  0.1089268E-08  0.5000000E-15
  1.000000000000000E-004
  CAR 
 unknown system                          
    256      6    162
