       N       E                     dE             d eps       ncg     rms          rms(c)
DAV:   1     0.468457431054E+03    0.46846E+03   -0.72963E+04  1944   0.883E+02
DAV:   2    -0.320896267278E+03   -0.78935E+03   -0.75128E+03  2356   0.159E+02
DAV:   3    -0.373212710419E+03   -0.52316E+02   -0.51478E+02  2360   0.379E+01
DAV:   4    -0.374465309954E+03   -0.12526E+01   -0.12431E+01  2336   0.704E+00
DAV:   5    -0.374506164194E+03   -0.40854E-01   -0.40788E-01  2336   0.116E+00    0.282E+01
DAV:   6    -0.369679868886E+03    0.48263E+01   -0.25863E+00  2168   0.248E+00    0.170E+01
DAV:   7    -0.367480272068E+03    0.21996E+01   -0.52320E+00  2164   0.357E+00    0.980E-01
DAV:   8    -0.367488163295E+03   -0.78912E-02   -0.27400E-01  2192   0.986E-01    0.354E-01
DAV:   9    -0.367489636028E+03   -0.14727E-02   -0.73741E-03  2362   0.167E-01    0.307E-01
DAV:  10    -0.367490488526E+03   -0.85250E-03   -0.21792E-03  2128   0.871E-02    0.224E-01
DAV:  11    -0.367490535437E+03   -0.46911E-04   -0.92162E-05  2248   0.197E-02    0.839E-03
DAV:  12    -0.367490538267E+03   -0.28294E-05   -0.40446E-06  2240   0.403E-03    0.868E-03
DAV:  13    -0.367490536930E+03    0.13365E-05   -0.86315E-07  2224   0.194E-03    0.160E-03
DAV:  14    -0.367490536914E+03    0.16707E-07   -0.15756E-08  1528   0.298E-04    0.685E-04
DAV:  15    -0.367490536858E+03    0.55469E-07   -0.11000E-08  1344   0.200E-04    0.120E-04
DAV:  16    -0.367490536855E+03    0.26912E-08   -0.19531E-09  1256   0.107E-04
   1 F= -.36749054E+03 E0= -.36749054E+03  d E =-.123945E-15
