 vasp.6.3.0 20Jan22 (build Aug 13 2022 13:28:16) complex                        
  
 executed on             LinuxIFC date 2022.09.07  11:51:43
 running on    2 total cores
 distrk:  each k-point on    2 cores,    1 groups
 distr:  one band on NCORE=   1 cores,    2 groups


--------------------------------------------------------------------------------------------------------


 INCAR:
   ADDGRID = True
   EDIFF = 1e-08
   ENCUT = 318
   GGA = Ps
   IALGO = 38
   IBRION = -1
   ISMEAR = 0
   LCHARG = False
   LREAL = False
   LWAVE = False
   NELMIN = 5
   NPAR = 4
   PREC = Accurate
   SIGMA = 0.02

 POTCAR:    PAW_PBE Si 05Jan2001                  
 -----------------------------------------------------------------------------
|                                                                             |
|           W    W    AA    RRRRR   N    N  II  N    N   GGGG   !!!           |
|           W    W   A  A   R    R  NN   N  II  NN   N  G    G  !!!           |
|           W    W  A    A  R    R  N N  N  II  N N  N  G       !!!           |
|           W WW W  AAAAAA  RRRRR   N  N N  II  N  N N  G  GGG   !            |
|           WW  WW  A    A  R   R   N   NN  II  N   NN  G    G                |
|           W    W  A    A  R    R  N    N  II  N    N   GGGG   !!!           |
|                                                                             |
|     The value NPAR = 4 specified in the INCAR file was overwritten,         |
|     because it was not compatible with the 2 processes available:           |
|     NPAR = 2                                                                |
|     was used instead, please check that this makes sense for your           |
|     machine.                                                                |
|                                                                             |
 -----------------------------------------------------------------------------

 POTCAR:    PAW_PBE Si 05Jan2001                  
   VRHFIN =Si: s2p2                                                                                 
   LEXCH  = PE                                                                                      
   EATOM  =   103.0669 eV,    7.5752 Ry                                                             
                                                                                                    
   TITEL  = PAW_PBE Si 05Jan2001                                                                    
   LULTRA =        F    use ultrasoft PP ?                                                          
   IUNSCR =        1    unscreen: 0-lin 1-nonlin 2-no                                               
   RPACOR =    1.500    partial core radius                                                         
   POMASS =   28.085; ZVAL   =    4.000    mass and valenz                                          
   RCORE  =    1.900    outmost cutoff radius                                                       
   RWIGS  =    2.480; RWIGS  =    1.312    wigner-seitz radius (au A)                               
   ENMAX  =  245.345; ENMIN  =  184.009 eV                                                          
   ICORE  =        2    local potential                                                             
   LCOR   =        T    correct aug charges                                                         
   LPAW   =        T    paw PP                                                                      
   EAUG   =  322.069                                                                                
   DEXC   =    0.000                                                                                
   RMAX   =    1.950    core radius for proj-oper                                                   
   RAUG   =    1.300    factor for augmentation sphere                                              
   RDEP   =    1.993    radius for radial grids                                                     
   RDEPT  =    1.837    core radius for aug-charge                                                  
                                                                                                    
   Atomic configuration                                                                             
    6 entries                                                                                       
     n  l   j            E        occ.                                                              
     1  0  0.50     -1785.8828   2.0000                                                             
     2  0  0.50      -139.4969   2.0000                                                             
     2  1  1.50       -95.5546   6.0000                                                             
     3  0  0.50       -10.8127   2.0000                                                             
     3  1  0.50        -4.0811   2.0000                                                             
     3  2  1.50        -4.0817   0.0000                                                             
   Description                                                                                      
     l       E           TYP  RCUT    TYP  RCUT                                                     
     0    -10.8127223     23  1.900                                                                 
     0     -7.6451159     23  1.900                                                                 
     1     -4.0811372     23  1.900                                                                 
     1      2.4879257     23  1.900                                                                 
     2     -4.0817478      7  1.900                                                                 
  local pseudopotential read in
  partial core-charges read in
  partial kinetic energy density read in
  atomic valenz-charges read in
  non local Contribution for L=           0  read in
    real space projection operators read in
  non local Contribution for L=           0  read in
    real space projection operators read in
  non local Contribution for L=           1  read in
    real space projection operators read in
  non local Contribution for L=           1  read in
    real space projection operators read in
    PAW grid and wavefunctions read in
 
   number of l-projection  operators is LMAX  =           4
   number of lm-projection operators is LMMAX =           8
 
 -----------------------------------------------------------------------------
|                                                                             |
|               ----> ADVICE to this user running VASP <----                  |
|                                                                             |
|     You have a (more or less) 'large supercell' and for larger cells it     |
|     might be more efficient to use real-space projection operators.         |
|     Therefore, try LREAL= Auto in the INCAR file.                           |
|     Mind: For very accurate calculation, you might also keep the            |
|     reciprocal projection scheme (i.e. LREAL=.FALSE.).                      |
|                                                                             |
 -----------------------------------------------------------------------------

 -----------------------------------------------------------------------------
|                                                                             |
|               ----> ADVICE to this user running VASP <----                  |
|                                                                             |
|     You enforced a specific xc type in the INCAR file but a different       |
|     type was found in the POTCAR file.                                      |
|     I HOPE YOU KNOW WHAT YOU ARE DOING!                                     |
|                                                                             |
 -----------------------------------------------------------------------------

  PAW_PBE Si 05Jan2001                  :
 energy of atom  1       EATOM= -103.0669
 kinetic energy error for atom=    0.0016 (will be added to EATOM!!)
 
 
 POSCAR: Si
  positions in cartesian coordinates
  No initial velocities read in
 exchange correlation table for  LEXCH =       14
   RHO(1)=    0.500       N(1)  =     2000
   RHO(2)=  100.500       N(2)  =     4000
 


--------------------------------------------------------------------------------------------------------


 ion  position               nearest neighbor table
   1  0.251  0.250  0.250-   2 2.35   8 2.35   6 2.36   4 2.36
   2  0.375  0.375  0.375-   1 2.35  31 2.36  45 2.36  51 2.36
   3  0.000  0.000  0.250-   4 2.36  22 2.36  40 2.36  50 2.36
   4  0.125  0.125  0.375-   3 2.36  13 2.36  15 2.36   1 2.36
   5  0.000  0.250  0.000-   6 2.36  12 2.36  40 2.36  42 2.36
   6  0.125  0.375  0.125-   5 2.36  19 2.36  23 2.36   1 2.36
   7  0.250  0.000  0.000-   8 2.36  12 2.36  22 2.36  26 2.36
   8  0.375  0.125  0.125-   1 2.35   7 2.36  35 2.36  37 2.36
   9  0.250  0.250  0.750-  10 2.36  12 2.36  14 2.36  16 2.36
  10  0.375  0.375  0.875-   9 2.36  23 2.36  37 2.36  59 2.36
  11  0.000  0.000  0.750-  12 2.36  30 2.36  48 2.36  58 2.36
  12  0.125  0.125  0.875-   5 2.36   7 2.36   9 2.36  11 2.36
  13  0.000  0.250  0.500-   4 2.36  14 2.36  34 2.36  48 2.36
  14  0.125  0.375  0.625-   9 2.36  13 2.36  27 2.36  31 2.36
  15  0.250  0.000  0.500-   4 2.36  16 2.36  18 2.36  30 2.36
  16  0.375  0.125  0.625-   9 2.36  15 2.36  43 2.36  45 2.36
  17  0.250  0.750  0.250-  18 2.36  20 2.36  22 2.36  24 2.36
  18  0.375  0.875  0.375-  15 2.36  17 2.36  35 2.36  61 2.36
  19  0.000  0.500  0.250-   6 2.36  20 2.36  34 2.36  56 2.36
  20  0.125  0.625  0.375-  17 2.36  19 2.36  29 2.36  31 2.36
  21  0.000  0.750  0.000-  22 2.36  28 2.36  56 2.36  58 2.36
  22  0.125  0.875  0.125-   3 2.36   7 2.36  17 2.36  21 2.36
  23  0.250  0.500  0.000-   6 2.36  10 2.36  24 2.36  28 2.36
  24  0.375  0.625  0.125-  17 2.36  23 2.36  51 2.36  53 2.36
  25  0.250  0.750  0.750-  26 2.36  28 2.36  30 2.36  32 2.36
  26  0.375  0.875  0.875-   7 2.36  25 2.36  43 2.36  53 2.36
  27  0.000  0.500  0.750-  14 2.36  28 2.36  42 2.36  64 2.36
  28  0.125  0.625  0.875-  21 2.36  23 2.36  25 2.36  27 2.36
  29  0.000  0.750  0.500-  20 2.36  30 2.36  50 2.36  64 2.36
  30  0.125  0.875  0.625-  11 2.36  15 2.36  25 2.36  29 2.36
  31  0.250  0.500  0.500-   2 2.36  14 2.36  20 2.36  32 2.36
  32  0.375  0.625  0.625-  25 2.36  31 2.36  59 2.36  61 2.36
  33  0.750  0.250  0.250-  34 2.36  36 2.36  38 2.36  40 2.36
  34  0.875  0.375  0.375-  13 2.36  19 2.36  33 2.36  63 2.36
  35  0.500  0.000  0.250-   8 2.36  18 2.36  36 2.36  54 2.36
  36  0.625  0.125  0.375-  33 2.36  35 2.36  45 2.36  47 2.36
  37  0.500  0.250  0.000-   8 2.36  10 2.36  38 2.36  44 2.36
  38  0.625  0.375  0.125-  33 2.36  37 2.36  51 2.36  55 2.36
  39  0.750  0.000  0.000-  40 2.36  44 2.36  54 2.36  58 2.36
  40  0.875  0.125  0.125-   3 2.36   5 2.36  33 2.36  39 2.36
  41  0.750  0.250  0.750-  42 2.36  44 2.36  46 2.36  48 2.36
  42  0.875  0.375  0.875-   5 2.36  27 2.36  41 2.36  55 2.36
  43  0.500  0.000  0.750-  16 2.36  26 2.36  44 2.36  62 2.36
  44  0.625  0.125  0.875-  37 2.36  39 2.36  41 2.36  43 2.36
  45  0.500  0.250  0.500-   2 2.36  16 2.36  36 2.36  46 2.36
  46  0.625  0.375  0.625-  41 2.36  45 2.36  59 2.36  63 2.36
  47  0.750  0.000  0.500-  36 2.36  48 2.36  50 2.36  62 2.36
  48  0.875  0.125  0.625-  11 2.36  13 2.36  41 2.36  47 2.36
  49  0.750  0.750  0.250-  50 2.36  52 2.36  54 2.36  56 2.36
  50  0.875  0.875  0.375-   3 2.36  29 2.36  47 2.36  49 2.36
  51  0.500  0.500  0.250-   2 2.36  24 2.36  38 2.36  52 2.36
  52  0.625  0.625  0.375-  49 2.36  51 2.36  61 2.36  63 2.36
  53  0.500  0.750  0.000-  24 2.36  26 2.36  54 2.36  60 2.36
  54  0.625  0.875  0.125-  35 2.36  39 2.36  49 2.36  53 2.36
  55  0.750  0.500  0.000-  38 2.36  42 2.36  56 2.36  60 2.36
  56  0.875  0.625  0.125-  19 2.36  21 2.36  49 2.36  55 2.36
  57  0.750  0.750  0.750-  58 2.36  60 2.36  62 2.36  64 2.36
  58  0.875  0.875  0.875-  11 2.36  21 2.36  39 2.36  57 2.36
  59  0.500  0.500  0.750-  10 2.36  32 2.36  46 2.36  60 2.36
  60  0.625  0.625  0.875-  53 2.36  55 2.36  57 2.36  59 2.36
  61  0.500  0.750  0.500-  18 2.36  32 2.36  52 2.36  62 2.36
  62  0.625  0.875  0.625-  43 2.36  47 2.36  57 2.36  61 2.36
  63  0.750  0.500  0.500-  34 2.36  46 2.36  52 2.36  64 2.36
  64  0.875  0.625  0.625-  27 2.36  29 2.36  57 2.36  63 2.36
 
  LATTYP: Found a simple cubic cell.
 ALAT       =    10.8926831200
  
  Lattice vectors:
  
 A1 = (  10.8926831200,   0.0000000000,   0.0000000000)
 A2 = (   0.0000000000,  10.8926831200,   0.0000000000)
 A3 = (   0.0000000000,   0.0000000000,  10.8926831200)


Analysis of symmetry for initial positions (statically):
=====================================================================
 Subroutine PRICEL returns:
 Original cell was already a primitive cell.
 

 Routine SETGRP: Setting up the symmetry group for a 
 simple cubic supercell.


 Subroutine GETGRP returns: Found  4 space group operations
 (whereof  2 operations were pure point group operations)
 out of a pool of 48 trial point group operations.


The static configuration has the point symmetry C_1h.
 The point group associated with its full space group is C_2v.


Analysis of symmetry for dynamics (positions and initial velocities):
=====================================================================
 Subroutine PRICEL returns:
 Original cell was already a primitive cell.
 

 Routine SETGRP: Setting up the symmetry group for a 
 simple cubic supercell.


 Subroutine GETGRP returns: Found  4 space group operations
 (whereof  2 operations were pure point group operations)
 out of a pool of 48 trial point group operations.


The dynamic configuration has the point symmetry C_1h.
 The point group associated with its full space group is C_2v.


 Subroutine INISYM returns: Found  4 space group operations
 (whereof  2 operations are pure point group operations),
 and found     1 'primitive' translations


----------------------------------------------------------------------------------------

                                     Primitive cell                                     

  volume of cell :    1292.4228

  direct lattice vectors                    reciprocal lattice vectors
    10.892683120  0.000000000  0.000000000     0.091804745  0.000000000  0.000000000
     0.000000000 10.892683120  0.000000000     0.000000000  0.091804745  0.000000000
     0.000000000  0.000000000 10.892683120     0.000000000  0.000000000  0.091804745

  length of vectors
    10.892683120 10.892683120 10.892683120     0.091804745  0.091804745  0.091804745

  position of ions in fractional coordinates (direct lattice)
     0.250918047  0.250000000  0.250000000
     0.375000000  0.375000000  0.375000000
     0.000000000  0.000000000  0.250000000
     0.125000000  0.125000000  0.375000000
     0.000000000  0.250000000  0.000000000
     0.125000000  0.375000000  0.125000000
     0.250000000  0.000000000  0.000000000
     0.375000000  0.125000000  0.125000000
     0.250000000  0.250000000  0.750000000
     0.375000000  0.375000000  0.875000000
     0.000000000  0.000000000  0.750000000
     0.125000000  0.125000000  0.875000000
     0.000000000  0.250000000  0.500000000
     0.125000000  0.375000000  0.625000000
     0.250000000  0.000000000  0.500000000
     0.375000000  0.125000000  0.625000000
     0.250000000  0.750000000  0.250000000
     0.375000000  0.875000000  0.375000000
     0.000000000  0.500000000  0.250000000
     0.125000000  0.625000000  0.375000000
     0.000000000  0.750000000  0.000000000
     0.125000000  0.875000000  0.125000000
     0.250000000  0.500000000  0.000000000
     0.375000000  0.625000000  0.125000000
     0.250000000  0.750000000  0.750000000
     0.375000000  0.875000000  0.875000000
     0.000000000  0.500000000  0.750000000
     0.125000000  0.625000000  0.875000000
     0.000000000  0.750000000  0.500000000
     0.125000000  0.875000000  0.625000000
     0.250000000  0.500000000  0.500000000
     0.375000000  0.625000000  0.625000000
     0.750000000  0.250000000  0.250000000
     0.875000000  0.375000000  0.375000000
     0.500000000  0.000000000  0.250000000
     0.625000000  0.125000000  0.375000000
     0.500000000  0.250000000  0.000000000
     0.625000000  0.375000000  0.125000000
     0.750000000  0.000000000  0.000000000
     0.875000000  0.125000000  0.125000000
     0.750000000  0.250000000  0.750000000
     0.875000000  0.375000000  0.875000000
     0.500000000  0.000000000  0.750000000
     0.625000000  0.125000000  0.875000000
     0.500000000  0.250000000  0.500000000
     0.625000000  0.375000000  0.625000000
     0.750000000  0.000000000  0.500000000
     0.875000000  0.125000000  0.625000000
     0.750000000  0.750000000  0.250000000
     0.875000000  0.875000000  0.375000000
     0.500000000  0.500000000  0.250000000
     0.625000000  0.625000000  0.375000000
     0.500000000  0.750000000  0.000000000
     0.625000000  0.875000000  0.125000000
     0.750000000  0.500000000  0.000000000
     0.875000000  0.625000000  0.125000000
     0.750000000  0.750000000  0.750000000
     0.875000000  0.875000000  0.875000000
     0.500000000  0.500000000  0.750000000
     0.625000000  0.625000000  0.875000000
     0.500000000  0.750000000  0.500000000
     0.625000000  0.875000000  0.625000000
     0.750000000  0.500000000  0.500000000
     0.875000000  0.625000000  0.625000000

  ion indices of the primitive-cell ions
   primitive index   ion index
                 1           1
                 2           2
                 3           3
                 4           4
                 5           5
                 6           6
                 7           7
                 8           8
                 9           9
                10          10
                11          11
                12          12
                13          13
                14          14
                15          15
                16          16
                17          17
                18          18
                19          19
                20          20
                21          21
                22          22
                23          23
                24          24
                25          25
                26          26
                27          27
                28          28
                29          29
                30          30
                31          31
                32          32
                33          33
                34          34
                35          35
                36          36
                37          37
                38          38
                39          39
                40          40
                41          41
                42          42
                43          43
                44          44
                45          45
                46          46
                47          47
                48          48
                49          49
                50          50
                51          51
                52          52
                53          53
                54          54
                55          55
                56          56
                57          57
                58          58
                59          59
                60          60
                61          61
                62          62
                63          63
                64          64

----------------------------------------------------------------------------------------

 
 
 KPOINTS: KPOINTS created by Atomic Simulation Env

Automatic generation of k-mesh.
 Grid dimensions read from file:
 generate k-points for:    2    2    2

 Generating k-lattice:

  Cartesian coordinates                     Fractional coordinates (reciprocal lattice)
     0.045902373  0.000000000  0.000000000     0.500000000  0.000000000  0.000000000
     0.000000000  0.045902373  0.000000000     0.000000000  0.500000000  0.000000000
     0.000000000  0.000000000  0.045902373     0.000000000  0.000000000  0.500000000

  Length of vectors
     0.045902373  0.045902373  0.045902373

  Shift w.r.t. Gamma in fractional coordinates (k-lattice)
     0.000000000  0.000000000  0.000000000

 
 Subroutine IBZKPT returns following result:
 ===========================================
 
 Found      6 irreducible k-points:
 
 Following reciprocal coordinates:
            Coordinates               Weight
  0.000000  0.000000  0.000000      1.000000
  0.500000  0.000000  0.000000      1.000000
  0.000000  0.500000  0.000000      2.000000
  0.500000  0.500000  0.000000      2.000000
  0.000000  0.500000  0.500000      1.000000
  0.500000  0.500000  0.500000      1.000000
 
 Following cartesian coordinates:
            Coordinates               Weight
  0.000000  0.000000  0.000000      1.000000
  0.045902  0.000000  0.000000      1.000000
  0.000000  0.045902  0.000000      2.000000
  0.045902  0.045902  0.000000      2.000000
  0.000000  0.045902  0.045902      1.000000
  0.045902  0.045902  0.045902      1.000000
 


--------------------------------------------------------------------------------------------------------




 Dimension of arrays:
   k-points           NKPTS =      6   k-points in BZ     NKDIM =      6   number of bands    NBANDS=    162
   number of dos      NEDOS =    301   number of ions     NIONS =     64
   non local maximal  LDIM  =      4   non local SUM 2l+1 LMDIM =      8
   total plane-waves  NPLWV = 262144
   max r-space proj   IRMAX =      1   max aug-charges    IRDMAX=  54446
   dimension x,y,z NGX =    64 NGY =   64 NGZ =   64
   dimension x,y,z NGXF=   128 NGYF=  128 NGZF=  128
   support grid    NGXF=   256 NGYF=  256 NGZF=  256
   ions per type =              64
   NGX,Y,Z   is equivalent  to a cutoff of   9.77,  9.77,  9.77 a.u.
   NGXF,Y,Z  is equivalent  to a cutoff of  19.54, 19.54, 19.54 a.u.

 SYSTEM =  unknown system                          
 POSCAR =  Si                                      

 Startparameter for this run:
   NWRITE =      2    write-flag & timer
   PREC   = accura    normal or accurate (medium, high low for compatibility)
   ISTART =      0    job   : 0-new  1-cont  2-samecut
   ICHARG =      2    charge: 1-file 2-atom 10-const
   ISPIN  =      1    spin polarized calculation?
   LNONCOLLINEAR =      F non collinear calculations
   LSORBIT =      F    spin-orbit coupling
   INIWAV =      1    electr: 0-lowe 1-rand  2-diag
   LASPH  =      F    aspherical Exc in radial PAW
 Electronic Relaxation 1
   ENCUT  =  318.0 eV  23.37 Ry    4.83 a.u.  15.84 15.84 15.84*2*pi/ulx,y,z
   ENINI  =  318.0     initial cutoff
   ENAUG  =  322.1 eV  augmentation charge cutoff
   NELM   =     60;   NELMIN=  5; NELMDL= -5     # of ELM steps 
   EDIFF  = 0.1E-07   stopping-criterion for ELM
   LREAL  =      F    real-space projection
   NLSPLINE    = F    spline interpolate recip. space projectors
   LCOMPAT=      F    compatible to vasp.4.4
   GGA_COMPAT  = T    GGA compatible to vasp.4.4-vasp.4.6
   LMAXPAW     = -100 max onsite density
   LMAXMIX     =    2 max onsite mixed and CHGCAR
   VOSKOWN=      0    Vosko Wilk Nusair interpolation
   ROPT   =    0.00000
 Ionic relaxation
   EDIFFG = 0.1E-06   stopping-criterion for IOM
   NSW    =      0    number of steps for IOM
   NBLOCK =      1;   KBLOCK =      1    inner block; outer block 
   IBRION =     -1    ionic relax: 0-MD 1-quasi-New 2-CG
   NFREE  =      0    steps in history (QN), initial steepest desc. (CG)
   ISIF   =      2    stress and relaxation
   IWAVPR =     10    prediction:  0-non 1-charg 2-wave 3-comb
   ISYM   =      2    0-nonsym 1-usesym 2-fastsym
   LCORR  =      T    Harris-Foulkes like correction to forces

   POTIM  = 0.5000    time-step for ionic-motion
   TEIN   =    0.0    initial temperature
   TEBEG  =    0.0;   TEEND  =   0.0 temperature during run
   SMASS  =  -3.00    Nose mass-parameter (am)
   estimated Nose-frequenzy (Omega)   =  0.10E-29 period in steps = 0.13E+47 mass=  -0.271E-26a.u.
   SCALEE = 1.0000    scale energy and forces
   NPACO  =    256;   APACO  = 10.0  distance and # of slots for P.C.
   PSTRESS=    0.0 pullay stress

  Mass of Ions in am
   POMASS =  28.09
  Ionic Valenz
   ZVAL   =   4.00
  Atomic Wigner-Seitz radii
   RWIGS  =  -1.00
  virtual crystal weights 
   VCA    =   1.00
   NELECT =     256.0000    total number of electrons
   NUPDOWN=      -1.0000    fix difference up-down

 DOS related values:
   EMIN   =  10.00;   EMAX   =-10.00  energy-range for DOS
   EFERMI =   0.00
   ISMEAR =     0;   SIGMA  =   0.02  broadening in eV -4-tet -1-fermi 0-gaus

 Electronic relaxation 2 (details)
   IALGO  =     38    algorithm
   LDIAG  =      T    sub-space diagonalisation (order eigenvalues)
   LSUBROT=      F    optimize rotation matrix (better conditioning)
   TURBO    =      0    0=normal 1=particle mesh
   IRESTART =      0    0=no restart 2=restart with 2 vectors
   NREBOOT  =      0    no. of reboots
   NMIN     =      0    reboot dimension
   EREF     =   0.00    reference energy to select bands
   IMIX   =      4    mixing-type and parameters
     AMIX     =   0.40;   BMIX     =  1.00
     AMIX_MAG =   1.60;   BMIX_MAG =  1.00
     AMIN     =   0.10
     WC   =   100.;   INIMIX=   1;  MIXPRE=   1;  MAXMIX= -45

 Intra band minimization:
   WEIMIN = 0.0000     energy-eigenvalue tresh-hold
   EBREAK =  0.15E-10  absolut break condition
   DEPER  =   0.30     relativ break condition  

   TIME   =   0.40     timestep for ELM

  volume/ion in A,a.u.               =      20.19       136.28
  Fermi-wavevector in a.u.,A,eV,Ry     =   0.954304  1.803373 12.390766  0.910696
  Thomas-Fermi vector in A             =   2.083038
 
 Write flags
   LWAVE        =      F    write WAVECAR
   LDOWNSAMPLE  =      F    k-point downsampling of WAVECAR
   LCHARG       =      F    write CHGCAR
   LVTOT        =      F    write LOCPOT, total local potential
   LVHAR        =      F    write LOCPOT, Hartree potential only
   LELF         =      F    write electronic localiz. function (ELF)
   LORBIT       =      0    0 simple, 1 ext, 2 COOP (PROOUT), +10 PAW based schemes


 Dipole corrections
   LMONO  =      F    monopole corrections only (constant potential shift)
   LDIPOL =      F    correct potential (dipole corrections)
   IDIPOL =      0    1-x, 2-y, 3-z, 4-all directions 
   EPSILON=  1.0000000 bulk dielectric constant

 Exchange correlation treatment:
   GGA     =    PS    GGA type
   LEXCH   =    14    internal setting for exchange type
   LIBXC   =     F    Libxc                    
   VOSKOWN =     0    Vosko Wilk Nusair interpolation
   LHFCALC =     F    Hartree Fock is set to
   LHFONE  =     F    Hartree Fock one center treatment
   AEXX    =    0.0000 exact exchange contribution

 Linear response parameters
   LEPSILON=     F    determine dielectric tensor
   LRPA    =     F    only Hartree local field effects (RPA)
   LNABLA  =     F    use nabla operator in PAW spheres
   LVEL    =     F    velocity operator in full k-point grid
   CSHIFT  =0.1000    complex shift for real part using Kramers Kronig
   OMEGAMAX=  -1.0    maximum frequency
   DEG_THRESHOLD= 0.2000000E-02 threshold for treating states as degnerate
   RTIME   =   -0.100 relaxation time in fs
  (WPLASMAI=    0.000 imaginary part of plasma frequency in eV, 0.658/RTIME)
   DFIELD  = 0.0000000 0.0000000 0.0000000 field for delta impulse in time
 
  Optional k-point grid parameters
   LKPOINTS_OPT  =     F    use optional k-point grid
   KPOINTS_OPT_MODE=     1    mode for optional k-point grid
 
 Orbital magnetization related:
   ORBITALMAG=     F  switch on orbital magnetization
   LCHIMAG   =     F  perturbation theory with respect to B field
   DQ        =  0.001000  dq finite difference perturbation B field
   LLRAUG    =     F  two centre corrections for induced B field



--------------------------------------------------------------------------------------------------------


 Static calculation
 charge density and potential will be updated during run
 non-spin polarized calculation
 Variant of blocked Davidson
 Davidson routine will perform the subspace rotation
 perform sub-space diagonalisation
    after iterative eigenvector-optimisation
 modified Broyden-mixing scheme, WC =      100.0
 initial mixing is a Kerker type mixing with AMIX =  0.4000 and BMIX =      1.0000
 Hartree-type preconditioning will be used
 using additional bands           34
 reciprocal scheme for non local part
 use partial core corrections
 calculate Harris-corrections to forces 
   (improved forces if not selfconsistent)
 use gradient corrections 
 use of overlap-Matrix (Vanderbilt PP)
 Gauss-broadening in eV      SIGMA  =   0.02


--------------------------------------------------------------------------------------------------------


  energy-cutoff  :      318.00
  volume of cell :     1292.42
      direct lattice vectors                 reciprocal lattice vectors
    10.892683120  0.000000000  0.000000000     0.091804745  0.000000000  0.000000000
     0.000000000 10.892683120  0.000000000     0.000000000  0.091804745  0.000000000
     0.000000000  0.000000000 10.892683120     0.000000000  0.000000000  0.091804745

  length of vectors
    10.892683120 10.892683120 10.892683120     0.091804745  0.091804745  0.091804745


 
 k-points in units of 2pi/SCALE and weight: KPOINTS created by Atomic Simulation Env
   0.00000000  0.00000000  0.00000000       0.125
   0.04590237  0.00000000  0.00000000       0.125
   0.00000000  0.04590237  0.00000000       0.250
   0.04590237  0.04590237  0.00000000       0.250
   0.00000000  0.04590237  0.04590237       0.125
   0.04590237  0.04590237  0.04590237       0.125
 
 k-points in reciprocal lattice and weights: KPOINTS created by Atomic Simulation Env
   0.00000000  0.00000000  0.00000000       0.125
   0.50000000  0.00000000  0.00000000       0.125
   0.00000000  0.50000000  0.00000000       0.250
   0.50000000  0.50000000  0.00000000       0.250
   0.00000000  0.50000000  0.50000000       0.125
   0.50000000  0.50000000  0.50000000       0.125
 
 position of ions in fractional coordinates (direct lattice) 
   0.25091805  0.25000000  0.25000000
   0.37500000  0.37500000  0.37500000
   0.00000000  0.00000000  0.25000000
   0.12500000  0.12500000  0.37500000
   0.00000000  0.25000000  0.00000000
   0.12500000  0.37500000  0.12500000
   0.25000000  0.00000000  0.00000000
   0.37500000  0.12500000  0.12500000
   0.25000000  0.25000000  0.75000000
   0.37500000  0.37500000  0.87500000
   0.00000000  0.00000000  0.75000000
   0.12500000  0.12500000  0.87500000
   0.00000000  0.25000000  0.50000000
   0.12500000  0.37500000  0.62500000
   0.25000000  0.00000000  0.50000000
   0.37500000  0.12500000  0.62500000
   0.25000000  0.75000000  0.25000000
   0.37500000  0.87500000  0.37500000
   0.00000000  0.50000000  0.25000000
   0.12500000  0.62500000  0.37500000
   0.00000000  0.75000000  0.00000000
   0.12500000  0.87500000  0.12500000
   0.25000000  0.50000000  0.00000000
   0.37500000  0.62500000  0.12500000
   0.25000000  0.75000000  0.75000000
   0.37500000  0.87500000  0.87500000
   0.00000000  0.50000000  0.75000000
   0.12500000  0.62500000  0.87500000
   0.00000000  0.75000000  0.50000000
   0.12500000  0.87500000  0.62500000
   0.25000000  0.50000000  0.50000000
   0.37500000  0.62500000  0.62500000
   0.75000000  0.25000000  0.25000000
   0.87500000  0.37500000  0.37500000
   0.50000000  0.00000000  0.25000000
   0.62500000  0.12500000  0.37500000
   0.50000000  0.25000000  0.00000000
   0.62500000  0.37500000  0.12500000
   0.75000000  0.00000000  0.00000000
   0.87500000  0.12500000  0.12500000
   0.75000000  0.25000000  0.75000000
   0.87500000  0.37500000  0.87500000
   0.50000000  0.00000000  0.75000000
   0.62500000  0.12500000  0.87500000
   0.50000000  0.25000000  0.50000000
   0.62500000  0.37500000  0.62500000
   0.75000000  0.00000000  0.50000000
   0.87500000  0.12500000  0.62500000
   0.75000000  0.75000000  0.25000000
   0.87500000  0.87500000  0.37500000
   0.50000000  0.50000000  0.25000000
   0.62500000  0.62500000  0.37500000
   0.50000000  0.75000000  0.00000000
   0.62500000  0.87500000  0.12500000
   0.75000000  0.50000000  0.00000000
   0.87500000  0.62500000  0.12500000
   0.75000000  0.75000000  0.75000000
   0.87500000  0.87500000  0.87500000
   0.50000000  0.50000000  0.75000000
   0.62500000  0.62500000  0.87500000
   0.50000000  0.75000000  0.50000000
   0.62500000  0.87500000  0.62500000
   0.75000000  0.50000000  0.50000000
   0.87500000  0.62500000  0.62500000
 
 position of ions in cartesian coordinates  (Angst):
   2.73317078  2.72317078  2.72317078
   4.08475617  4.08475617  4.08475617
   0.00000000  0.00000000  2.72317078
   1.36158539  1.36158539  4.08475617
   0.00000000  2.72317078  0.00000000
   1.36158539  4.08475617  1.36158539
   2.72317078  0.00000000  0.00000000
   4.08475617  1.36158539  1.36158539
   2.72317078  2.72317078  8.16951234
   4.08475617  4.08475617  9.53109773
   0.00000000  0.00000000  8.16951234
   1.36158539  1.36158539  9.53109773
   0.00000000  2.72317078  5.44634156
   1.36158539  4.08475617  6.80792695
   2.72317078  0.00000000  5.44634156
   4.08475617  1.36158539  6.80792695
   2.72317078  8.16951234  2.72317078
   4.08475617  9.53109773  4.08475617
   0.00000000  5.44634156  2.72317078
   1.36158539  6.80792695  4.08475617
   0.00000000  8.16951234  0.00000000
   1.36158539  9.53109773  1.36158539
   2.72317078  5.44634156  0.00000000
   4.08475617  6.80792695  1.36158539
   2.72317078  8.16951234  8.16951234
   4.08475617  9.53109773  9.53109773
   0.00000000  5.44634156  8.16951234
   1.36158539  6.80792695  9.53109773
   0.00000000  8.16951234  5.44634156
   1.36158539  9.53109773  6.80792695
   2.72317078  5.44634156  5.44634156
   4.08475617  6.80792695  6.80792695
   8.16951234  2.72317078  2.72317078
   9.53109773  4.08475617  4.08475617
   5.44634156  0.00000000  2.72317078
   6.80792695  1.36158539  4.08475617
   5.44634156  2.72317078  0.00000000
   6.80792695  4.08475617  1.36158539
   8.16951234  0.00000000  0.00000000
   9.53109773  1.36158539  1.36158539
   8.16951234  2.72317078  8.16951234
   9.53109773  4.08475617  9.53109773
   5.44634156  0.00000000  8.16951234
   6.80792695  1.36158539  9.53109773
   5.44634156  2.72317078  5.44634156
   6.80792695  4.08475617  6.80792695
   8.16951234  0.00000000  5.44634156
   9.53109773  1.36158539  6.80792695
   8.16951234  8.16951234  2.72317078
   9.53109773  9.53109773  4.08475617
   5.44634156  5.44634156  2.72317078
   6.80792695  6.80792695  4.08475617
   5.44634156  8.16951234  0.00000000
   6.80792695  9.53109773  1.36158539
   8.16951234  5.44634156  0.00000000
   9.53109773  6.80792695  1.36158539
   8.16951234  8.16951234  8.16951234
   9.53109773  9.53109773  9.53109773
   5.44634156  5.44634156  8.16951234
   6.80792695  6.80792695  9.53109773
   5.44634156  8.16951234  5.44634156
   6.80792695  9.53109773  6.80792695
   8.16951234  5.44634156  5.44634156
   9.53109773  6.80792695  6.80792695
 


--------------------------------------------------------------------------------------------------------


 k-point   1 :   0.0000 0.0000 0.0000  plane waves:   16663
 k-point   2 :   0.5000 0.0000 0.0000  plane waves:   16648
 k-point   3 :   0.0000 0.5000 0.0000  plane waves:   16648
 k-point   4 :   0.5000 0.5000 0.0000  plane waves:   16652
 k-point   5 :   0.0000 0.5000 0.5000  plane waves:   16652
 k-point   6 :   0.5000 0.5000 0.5000  plane waves:   16656

 maximum and minimum number of plane-waves per node :     16663    16648

 maximum number of plane-waves:     16663
 maximum index in each direction: 
   IXMAX=   15   IYMAX=   15   IZMAX=   15
   IXMIN=  -16   IYMIN=  -16   IZMIN=  -16


 serial   3D FFT for wavefunctions
 parallel 3D FFT for charge:
    minimum data exchange during FFTs selected (reduces bandwidth)


 total amount of memory used by VASP MPI-rank0   403626. kBytes
=======================================================================

   base      :      30000. kBytes
   nonl-proj :      23462. kBytes
   fftplans  :     155001. kBytes
   grid      :      61407. kBytes
   one-center:        196. kBytes
   wavefun   :     133560. kBytes
 
     INWAV:  cpu time      0.0000: real time      0.0000
 Broyden mixing: mesh for mixing (old mesh)
   NGX = 31   NGY = 31   NGZ = 31
  (NGX  =128   NGY  =128   NGZ  =128)
  gives a total of  29791 points

 initial charge density was supplied:
 charge density of overlapping atoms calculated
 number of electron     256.0000000 magnetization 
 keeping initial charge density in first step


--------------------------------------------------------------------------------------------------------


 Maximum index for augmentation-charges        26323 (set IRDMAX)


--------------------------------------------------------------------------------------------------------


 First call to EWALD:  gamma=   0.163
 Maximum number of real-space cells 3x 3x 3
 Maximum number of reciprocal cells 3x 3x 3

    FEWALD:  cpu time      0.0050: real time      0.0050


--------------------------------------- Iteration      1(   1)  ---------------------------------------


    POTLOK:  cpu time      0.3040: real time      0.3041
    SETDIJ:  cpu time      0.2222: real time      0.2221
     EDDAV:  cpu time     28.4557: real time     28.4562
       DOS:  cpu time      0.0008: real time      0.0008
    --------------------------------------------
      LOOP:  cpu time     28.9826: real time     28.9831

 eigenvalue-minimisations  :  1944
 total energy-change (2. order) : 0.4684574E+03  (-0.7296322E+04)
 number of electron     256.0000000 magnetization 
 augmentation part      256.0000000 magnetization 

 Free energy of the ion-electron system (eV)
  ---------------------------------------------------
  alpha Z        PSCENC =       106.68659228
  Ewald energy   TEWEN  =     -7292.08615189
  -Hartree energ DENC   =      -356.37859736
  -exchange      EXHF   =         0.00000000
  -V(xc)+E(xc)   XCENC  =      -559.61005462
  PAW double counting   =      5598.62625415    -4492.17844134
  entropy T*S    EENTRO =        -0.00670087
  eigenvalues    EBANDS =       898.63750650
  atomic energy  EATOM  =      6564.76702419
  Solvation  Ediel_sol  =         0.00000000
  ---------------------------------------------------
  free energy    TOTEN  =       468.45743105 eV

  energy without entropy =      468.46413192  energy(sigma->0) =      468.46078149


--------------------------------------------------------------------------------------------------------




--------------------------------------- Iteration      1(   2)  ---------------------------------------


     EDDAV:  cpu time     33.3386: real time     33.3407
       DOS:  cpu time      0.0003: real time      0.0003
    --------------------------------------------
      LOOP:  cpu time     33.3389: real time     33.3410

 eigenvalue-minimisations  :  2356
 total energy-change (2. order) :-0.7893537E+03  (-0.7512813E+03)
 number of electron     256.0000000 magnetization 
 augmentation part      256.0000000 magnetization 

 Free energy of the ion-electron system (eV)
  ---------------------------------------------------
  alpha Z        PSCENC =       106.68659228
  Ewald energy   TEWEN  =     -7292.08615189
  -Hartree energ DENC   =      -356.37859736
  -exchange      EXHF   =         0.00000000
  -V(xc)+E(xc)   XCENC  =      -559.61005462
  PAW double counting   =      5598.62625415    -4492.17844134
  entropy T*S    EENTRO =        -0.00000000
  eigenvalues    EBANDS =       109.27710731
  atomic energy  EATOM  =      6564.76702419
  Solvation  Ediel_sol  =         0.00000000
  ---------------------------------------------------
  free energy    TOTEN  =      -320.89626728 eV

  energy without entropy =     -320.89626728  energy(sigma->0) =     -320.89626728


--------------------------------------------------------------------------------------------------------




--------------------------------------- Iteration      1(   3)  ---------------------------------------


     EDDAV:  cpu time     33.5205: real time     33.5228
       DOS:  cpu time      0.0003: real time      0.0003
    --------------------------------------------
      LOOP:  cpu time     33.5208: real time     33.5231

 eigenvalue-minimisations  :  2360
 total energy-change (2. order) :-0.5231644E+02  (-0.5147818E+02)
 number of electron     256.0000000 magnetization 
 augmentation part      256.0000000 magnetization 

 Free energy of the ion-electron system (eV)
  ---------------------------------------------------
  alpha Z        PSCENC =       106.68659228
  Ewald energy   TEWEN  =     -7292.08615189
  -Hartree energ DENC   =      -356.37859736
  -exchange      EXHF   =         0.00000000
  -V(xc)+E(xc)   XCENC  =      -559.61005462
  PAW double counting   =      5598.62625415    -4492.17844134
  entropy T*S    EENTRO =        -0.00000000
  eigenvalues    EBANDS =        56.96066417
  atomic energy  EATOM  =      6564.76702419
  Solvation  Ediel_sol  =         0.00000000
  ---------------------------------------------------
  free energy    TOTEN  =      -373.21271042 eV

  energy without entropy =     -373.21271042  energy(sigma->0) =     -373.21271042


--------------------------------------------------------------------------------------------------------




--------------------------------------- Iteration      1(   4)  ---------------------------------------


     EDDAV:  cpu time     33.1593: real time     33.1615
       DOS:  cpu time      0.0003: real time      0.0003
    --------------------------------------------
      LOOP:  cpu time     33.1596: real time     33.1619

 eigenvalue-minimisations  :  2336
 total energy-change (2. order) :-0.1252600E+01  (-0.1243114E+01)
 number of electron     256.0000000 magnetization 
 augmentation part      256.0000000 magnetization 

 Free energy of the ion-electron system (eV)
  ---------------------------------------------------
  alpha Z        PSCENC =       106.68659228
  Ewald energy   TEWEN  =     -7292.08615189
  -Hartree energ DENC   =      -356.37859736
  -exchange      EXHF   =         0.00000000
  -V(xc)+E(xc)   XCENC  =      -559.61005462
  PAW double counting   =      5598.62625415    -4492.17844134
  entropy T*S    EENTRO =        -0.00000000
  eigenvalues    EBANDS =        55.70806463
  atomic energy  EATOM  =      6564.76702419
  Solvation  Ediel_sol  =         0.00000000
  ---------------------------------------------------
  free energy    TOTEN  =      -374.46530995 eV

  energy without entropy =     -374.46530995  energy(sigma->0) =     -374.46530995


--------------------------------------------------------------------------------------------------------




--------------------------------------- Iteration      1(   5)  ---------------------------------------


     EDDAV:  cpu time     33.1480: real time     33.1501
       DOS:  cpu time      0.0003: real time      0.0003
    CHARGE:  cpu time      0.7610: real time      0.7610
    MIXING:  cpu time      0.0094: real time      0.0094
    --------------------------------------------
      LOOP:  cpu time     33.9188: real time     33.9207

 eigenvalue-minimisations  :  2336
 total energy-change (2. order) :-0.4085424E-01  (-0.4078830E-01)
 number of electron     255.9999995 magnetization 
 augmentation part      -14.9465869 magnetization 

 Broyden mixing:
  rms(total) = 0.28232E+01    rms(broyden)= 0.28231E+01
  rms(prec ) = 0.31068E+01
  weight for this iteration     100.00

 Free energy of the ion-electron system (eV)
  ---------------------------------------------------
  alpha Z        PSCENC =       106.68659228
  Ewald energy   TEWEN  =     -7292.08615189
  -Hartree energ DENC   =      -356.37859736
  -exchange      EXHF   =         0.00000000
  -V(xc)+E(xc)   XCENC  =      -559.61005462
  PAW double counting   =      5598.62625415    -4492.17844134
  entropy T*S    EENTRO =        -0.00000000
  eigenvalues    EBANDS =        55.66721039
  atomic energy  EATOM  =      6564.76702419
  Solvation  Ediel_sol  =         0.00000000
  ---------------------------------------------------
  free energy    TOTEN  =      -374.50616419 eV

  energy without entropy =     -374.50616419  energy(sigma->0) =     -374.50616419


--------------------------------------------------------------------------------------------------------




--------------------------------------- Iteration      1(   6)  ---------------------------------------


    POTLOK:  cpu time      0.2926: real time      0.2933
    SETDIJ:  cpu time      0.2202: real time      0.2202
     EDDAV:  cpu time     31.1046: real time     31.1051
       DOS:  cpu time      0.0003: real time      0.0003
    CHARGE:  cpu time      0.8711: real time      0.8710
    MIXING:  cpu time      0.0096: real time      0.0096
    --------------------------------------------
      LOOP:  cpu time     32.4984: real time     32.4996

 eigenvalue-minimisations  :  2168
 total energy-change (2. order) : 0.4826295E+01  (-0.2586344E+00)
 number of electron     255.9999995 magnetization 
 augmentation part      -14.7898956 magnetization 

 Broyden mixing:
  rms(total) = 0.17017E+01    rms(broyden)= 0.17017E+01
  rms(prec ) = 0.18601E+01
  weight for this iteration     100.00

 eigenvalues of (default mixing * dielectric matrix)
  average eigenvalue GAMMA=   2.5099
  2.5099

 Free energy of the ion-electron system (eV)
  ---------------------------------------------------
  alpha Z        PSCENC =       106.68659228
  Ewald energy   TEWEN  =     -7292.08615189
  -Hartree energ DENC   =      -402.01113102
  -exchange      EXHF   =         0.00000000
  -V(xc)+E(xc)   XCENC  =      -552.38934732
  PAW double counting   =     12394.22829034   -11290.95719470
  entropy T*S    EENTRO =        -0.00000000
  eigenvalues    EBANDS =       102.08204923
  atomic energy  EATOM  =      6564.76702419
  Solvation  Ediel_sol  =         0.00000000
  ---------------------------------------------------
  free energy    TOTEN  =      -369.67986889 eV

  energy without entropy =     -369.67986889  energy(sigma->0) =     -369.67986889


--------------------------------------------------------------------------------------------------------




--------------------------------------- Iteration      1(   7)  ---------------------------------------


    POTLOK:  cpu time      0.2937: real time      0.2947
    SETDIJ:  cpu time      0.2196: real time      0.2196
     EDDAV:  cpu time     31.0785: real time     31.0789
       DOS:  cpu time      0.0003: real time      0.0003
    CHARGE:  cpu time      0.8715: real time      0.8714
    MIXING:  cpu time      0.0099: real time      0.0099
    --------------------------------------------
      LOOP:  cpu time     32.4736: real time     32.4748

 eigenvalue-minimisations  :  2164
 total energy-change (2. order) : 0.2199597E+01  (-0.5231962E+00)
 number of electron     255.9999995 magnetization 
 augmentation part      -14.5929780 magnetization 

 Broyden mixing:
  rms(total) = 0.98006E-01    rms(broyden)= 0.98005E-01
  rms(prec ) = 0.12173E+00
  weight for this iteration     100.00

 eigenvalues of (default mixing * dielectric matrix)
  average eigenvalue GAMMA=   2.2489
  2.2489  2.2489

 Free energy of the ion-electron system (eV)
  ---------------------------------------------------
  alpha Z        PSCENC =       106.68659228
  Ewald energy   TEWEN  =     -7292.08615189
  -Hartree energ DENC   =      -475.92550198
  -exchange      EXHF   =         0.00000000
  -V(xc)+E(xc)   XCENC  =      -540.03618720
  PAW double counting   =     28760.65431303   -27661.65338113
  entropy T*S    EENTRO =        -0.00000000
  eigenvalues    EBANDS =       170.11302062
  atomic energy  EATOM  =      6564.76702419
  Solvation  Ediel_sol  =         0.00000000
  ---------------------------------------------------
  free energy    TOTEN  =      -367.48027207 eV

  energy without entropy =     -367.48027207  energy(sigma->0) =     -367.48027207


--------------------------------------------------------------------------------------------------------




--------------------------------------- Iteration      1(   8)  ---------------------------------------


    POTLOK:  cpu time      0.2933: real time      0.2941
    SETDIJ:  cpu time      0.2202: real time      0.2202
     EDDAV:  cpu time     31.2392: real time     31.2399
       DOS:  cpu time      0.0003: real time      0.0003
    CHARGE:  cpu time      0.8716: real time      0.8715
    MIXING:  cpu time      0.0100: real time      0.0100
    --------------------------------------------
      LOOP:  cpu time     32.6346: real time     32.6359

 eigenvalue-minimisations  :  2192
 total energy-change (2. order) :-0.7891227E-02  (-0.2740046E-01)
 number of electron     255.9999995 magnetization 
 augmentation part      -14.6345120 magnetization 

 Broyden mixing:
  rms(total) = 0.35386E-01    rms(broyden)= 0.35385E-01
  rms(prec ) = 0.40745E-01
  weight for this iteration     100.00

 eigenvalues of (default mixing * dielectric matrix)
  average eigenvalue GAMMA=   2.4568
  2.8654  2.2524  2.2524

 Free energy of the ion-electron system (eV)
  ---------------------------------------------------
  alpha Z        PSCENC =       106.68659228
  Ewald energy   TEWEN  =     -7292.08615189
  -Hartree energ DENC   =      -469.10929789
  -exchange      EXHF   =         0.00000000
  -V(xc)+E(xc)   XCENC  =      -540.63129149
  PAW double counting   =     28236.98120626   -27137.19612039
  entropy T*S    EENTRO =        -0.00000000
  eigenvalues    EBANDS =       163.09987564
  atomic energy  EATOM  =      6564.76702419
  Solvation  Ediel_sol  =         0.00000000
  ---------------------------------------------------
  free energy    TOTEN  =      -367.48816329 eV

  energy without entropy =     -367.48816329  energy(sigma->0) =     -367.48816329


--------------------------------------------------------------------------------------------------------




--------------------------------------- Iteration      1(   9)  ---------------------------------------


    POTLOK:  cpu time      0.2938: real time      0.2947
    SETDIJ:  cpu time      0.2199: real time      0.2199
     EDDAV:  cpu time     33.1360: real time     33.1369
       DOS:  cpu time      0.0003: real time      0.0003
    CHARGE:  cpu time      0.8441: real time      0.8440
    MIXING:  cpu time      0.0101: real time      0.0101
    --------------------------------------------
      LOOP:  cpu time     34.5042: real time     34.5058

 eigenvalue-minimisations  :  2362
 total energy-change (2. order) :-0.1472733E-02  (-0.7374122E-03)
 number of electron     255.9999995 magnetization 
 augmentation part      -14.6349238 magnetization 

 Broyden mixing:
  rms(total) = 0.30731E-01    rms(broyden)= 0.30731E-01
  rms(prec ) = 0.31813E-01
  weight for this iteration     100.00

 eigenvalues of (default mixing * dielectric matrix)
  average eigenvalue GAMMA=   2.4229
  4.0755  0.9279  2.3441  2.3441

 Free energy of the ion-electron system (eV)
  ---------------------------------------------------
  alpha Z        PSCENC =       106.68659228
  Ewald energy   TEWEN  =     -7292.08615189
  -Hartree energ DENC   =      -471.04772992
  -exchange      EXHF   =         0.00000000
  -V(xc)+E(xc)   XCENC  =      -540.30390840
  PAW double counting   =     28379.16863079   -27279.48363150
  entropy T*S    EENTRO =        -0.00000000
  eigenvalues    EBANDS =       164.80953841
  atomic energy  EATOM  =      6564.76702419
  Solvation  Ediel_sol  =         0.00000000
  ---------------------------------------------------
  free energy    TOTEN  =      -367.48963603 eV

  energy without entropy =     -367.48963603  energy(sigma->0) =     -367.48963603


--------------------------------------------------------------------------------------------------------




--------------------------------------- Iteration      1(  10)  ---------------------------------------


    POTLOK:  cpu time      0.2903: real time      0.2909
    SETDIJ:  cpu time      0.2178: real time      0.2178
     EDDAV:  cpu time     30.1288: real time     30.1291
       DOS:  cpu time      0.0003: real time      0.0003
    CHARGE:  cpu time      0.8469: real time      0.8468
    MIXING:  cpu time      0.0103: real time      0.0103
    --------------------------------------------
      LOOP:  cpu time     31.4945: real time     31.4952

 eigenvalue-minimisations  :  2128
 total energy-change (2. order) :-0.8524987E-03  (-0.2179164E-03)
 number of electron     255.9999995 magnetization 
 augmentation part      -14.6371496 magnetization 

 Broyden mixing:
  rms(total) = 0.22404E-01    rms(broyden)= 0.22404E-01
  rms(prec ) = 0.22525E-01
  weight for this iteration     100.00

 eigenvalues of (default mixing * dielectric matrix)
  average eigenvalue GAMMA=   1.8668
  2.8715  2.2449  2.2449  0.9863  0.9863

 Free energy of the ion-electron system (eV)
  ---------------------------------------------------
  alpha Z        PSCENC =       106.68659228
  Ewald energy   TEWEN  =     -7292.08615189
  -Hartree energ DENC   =      -471.25221562
  -exchange      EXHF   =         0.00000000
  -V(xc)+E(xc)   XCENC  =      -540.23311733
  PAW double counting   =     27868.74782194   -26769.02727683
  entropy T*S    EENTRO =        -0.00000000
  eigenvalues    EBANDS =       164.90683474
  atomic energy  EATOM  =      6564.76702419
  Solvation  Ediel_sol  =         0.00000000
  ---------------------------------------------------
  free energy    TOTEN  =      -367.49048853 eV

  energy without entropy =     -367.49048853  energy(sigma->0) =     -367.49048853


--------------------------------------------------------------------------------------------------------




--------------------------------------- Iteration      1(  11)  ---------------------------------------


    POTLOK:  cpu time      0.2902: real time      0.2912
    SETDIJ:  cpu time      0.2169: real time      0.2168
     EDDAV:  cpu time     31.4391: real time     31.4403
       DOS:  cpu time      0.0003: real time      0.0003
    CHARGE:  cpu time      0.8602: real time      0.8601
    MIXING:  cpu time      0.0104: real time      0.0105
    --------------------------------------------
      LOOP:  cpu time     32.8171: real time     32.8193

 eigenvalue-minimisations  :  2248
 total energy-change (2. order) :-0.4691110E-04  (-0.9216192E-05)
 number of electron     255.9999995 magnetization 
 augmentation part      -14.6377702 magnetization 

 Broyden mixing:
  rms(total) = 0.83935E-03    rms(broyden)= 0.83933E-03
  rms(prec ) = 0.94029E-03
  weight for this iteration     100.00

 eigenvalues of (default mixing * dielectric matrix)
  average eigenvalue GAMMA=   1.8031
  2.8983  2.2591  2.2591  1.5130  1.0927  0.7965

 Free energy of the ion-electron system (eV)
  ---------------------------------------------------
  alpha Z        PSCENC =       106.68659228
  Ewald energy   TEWEN  =     -7292.08615189
  -Hartree energ DENC   =      -471.17260649
  -exchange      EXHF   =         0.00000000
  -V(xc)+E(xc)   XCENC  =      -540.24071241
  PAW double counting   =     28090.60914221   -26990.88192206
  entropy T*S    EENTRO =        -0.00000000
  eigenvalues    EBANDS =       164.82809873
  atomic energy  EATOM  =      6564.76702419
  Solvation  Ediel_sol  =         0.00000000
  ---------------------------------------------------
  free energy    TOTEN  =      -367.49053544 eV

  energy without entropy =     -367.49053544  energy(sigma->0) =     -367.49053544


--------------------------------------------------------------------------------------------------------




--------------------------------------- Iteration      1(  12)  ---------------------------------------


    POTLOK:  cpu time      0.2891: real time      0.2898
    SETDIJ:  cpu time      0.2173: real time      0.2173
     EDDAV:  cpu time     31.3637: real time     31.3649
       DOS:  cpu time      0.0003: real time      0.0003
    CHARGE:  cpu time      0.8604: real time      0.8604
    MIXING:  cpu time      0.0107: real time      0.0107
    --------------------------------------------
      LOOP:  cpu time     32.7416: real time     32.7434

 eigenvalue-minimisations  :  2240
 total energy-change (2. order) :-0.2829363E-05  (-0.4044615E-06)
 number of electron     255.9999995 magnetization 
 augmentation part      -14.6376194 magnetization 

 Broyden mixing:
  rms(total) = 0.86833E-03    rms(broyden)= 0.86833E-03
  rms(prec ) = 0.89941E-03
  weight for this iteration     100.00

 eigenvalues of (default mixing * dielectric matrix)
  average eigenvalue GAMMA=   1.8645
  3.0666  2.4901  2.4901  2.2017  0.9874  0.9077  0.9077

 Free energy of the ion-electron system (eV)
  ---------------------------------------------------
  alpha Z        PSCENC =       106.68659228
  Ewald energy   TEWEN  =     -7292.08615189
  -Hartree energ DENC   =      -471.21233003
  -exchange      EXHF   =         0.00000000
  -V(xc)+E(xc)   XCENC  =      -540.23839667
  PAW double counting   =     28094.75666532   -26995.02878439
  entropy T*S    EENTRO =        -0.00000000
  eigenvalues    EBANDS =       164.86484292
  atomic energy  EATOM  =      6564.76702419
  Solvation  Ediel_sol  =         0.00000000
  ---------------------------------------------------
  free energy    TOTEN  =      -367.49053827 eV

  energy without entropy =     -367.49053827  energy(sigma->0) =     -367.49053827


--------------------------------------------------------------------------------------------------------




--------------------------------------- Iteration      1(  13)  ---------------------------------------


    POTLOK:  cpu time      0.2880: real time      0.2889
    SETDIJ:  cpu time      0.2166: real time      0.2166
     EDDAV:  cpu time     31.3731: real time     31.3742
       DOS:  cpu time      0.0003: real time      0.0003
    CHARGE:  cpu time      0.8819: real time      0.8818
    MIXING:  cpu time      0.0108: real time      0.0108
    --------------------------------------------
      LOOP:  cpu time     32.7708: real time     32.7726

 eigenvalue-minimisations  :  2224
 total energy-change (2. order) : 0.1336518E-05  (-0.8631475E-07)
 number of electron     255.9999995 magnetization 
 augmentation part      -14.6376039 magnetization 

 Broyden mixing:
  rms(total) = 0.16033E-03    rms(broyden)= 0.16033E-03
  rms(prec ) = 0.16511E-03
  weight for this iteration     100.00

 eigenvalues of (default mixing * dielectric matrix)
  average eigenvalue GAMMA=   1.7771
  3.0802  2.6041  2.4322  2.1804  0.9715  0.9173  1.0157  1.0157

 Free energy of the ion-electron system (eV)
  ---------------------------------------------------
  alpha Z        PSCENC =       106.68659228
  Ewald energy   TEWEN  =     -7292.08615189
  -Hartree energ DENC   =      -471.21046336
  -exchange      EXHF   =         0.00000000
  -V(xc)+E(xc)   XCENC  =      -540.24118383
  PAW double counting   =     28088.23400217   -26988.50365272
  entropy T*S    EENTRO =        -0.00000000
  eigenvalues    EBANDS =       164.86329623
  atomic energy  EATOM  =      6564.76702419
  Solvation  Ediel_sol  =         0.00000000
  ---------------------------------------------------
  free energy    TOTEN  =      -367.49053693 eV

  energy without entropy =     -367.49053693  energy(sigma->0) =     -367.49053693


--------------------------------------------------------------------------------------------------------




--------------------------------------- Iteration      1(  14)  ---------------------------------------


    POTLOK:  cpu time      0.2892: real time      0.2899
    SETDIJ:  cpu time      0.2165: real time      0.2165
     EDDAV:  cpu time     23.7905: real time     23.7920
       DOS:  cpu time      0.0003: real time      0.0003
    CHARGE:  cpu time      0.8824: real time      0.8823
    MIXING:  cpu time      0.0110: real time      0.0110
    --------------------------------------------
      LOOP:  cpu time     25.1900: real time     25.1921

 eigenvalue-minimisations  :  1528
 total energy-change (2. order) : 0.1670742E-07  (-0.1575613E-08)
 number of electron     255.9999995 magnetization 
 augmentation part      -14.6376000 magnetization 

 Broyden mixing:
  rms(total) = 0.68548E-04    rms(broyden)= 0.68548E-04
  rms(prec ) = 0.70803E-04
  weight for this iteration     100.00

 eigenvalues of (default mixing * dielectric matrix)
  average eigenvalue GAMMA=   1.8201
  3.1007  2.4983  2.4983  2.1626  2.0753  1.2051  0.9312  0.9312  0.9781

 Free energy of the ion-electron system (eV)
  ---------------------------------------------------
  alpha Z        PSCENC =       106.68659228
  Ewald energy   TEWEN  =     -7292.08615189
  -Hartree energ DENC   =      -471.21021512
  -exchange      EXHF   =         0.00000000
  -V(xc)+E(xc)   XCENC  =      -540.24145612
  PAW double counting   =     28087.39031018   -26987.65993515
  entropy T*S    EENTRO =        -0.00000000
  eigenvalues    EBANDS =       164.86329471
  atomic energy  EATOM  =      6564.76702419
  Solvation  Ediel_sol  =         0.00000000
  ---------------------------------------------------
  free energy    TOTEN  =      -367.49053691 eV

  energy without entropy =     -367.49053691  energy(sigma->0) =     -367.49053691


--------------------------------------------------------------------------------------------------------




--------------------------------------- Iteration      1(  15)  ---------------------------------------


    POTLOK:  cpu time      0.2889: real time      0.2892
    SETDIJ:  cpu time      0.2171: real time      0.2171
     EDDAV:  cpu time     21.7413: real time     21.7420
       DOS:  cpu time      0.0003: real time      0.0003
    CHARGE:  cpu time      0.8819: real time      0.8818
    MIXING:  cpu time      0.0113: real time      0.0113
    --------------------------------------------
      LOOP:  cpu time     23.1408: real time     23.1416

 eigenvalue-minimisations  :  1344
 total energy-change (2. order) : 0.5546917E-07  (-0.1099996E-08)
 number of electron     255.9999995 magnetization 
 augmentation part      -14.6376022 magnetization 

 Broyden mixing:
  rms(total) = 0.12028E-04    rms(broyden)= 0.12028E-04
  rms(prec ) = 0.13322E-04
  weight for this iteration     100.00

 eigenvalues of (default mixing * dielectric matrix)
  average eigenvalue GAMMA=   1.7727
  3.0964  2.6244  2.2905  2.2905  1.7878  1.7878  0.9873  0.9873  0.9377  0.9377

 Free energy of the ion-electron system (eV)
  ---------------------------------------------------
  alpha Z        PSCENC =       106.68659228
  Ewald energy   TEWEN  =     -7292.08615189
  -Hartree energ DENC   =      -471.20924900
  -exchange      EXHF   =         0.00000000
  -V(xc)+E(xc)   XCENC  =      -540.24159061
  PAW double counting   =     28086.95814633   -26987.22778840
  entropy T*S    EENTRO =        -0.00000000
  eigenvalues    EBANDS =       164.86248024
  atomic energy  EATOM  =      6564.76702419
  Solvation  Ediel_sol  =         0.00000000
  ---------------------------------------------------
  free energy    TOTEN  =      -367.49053686 eV

  energy without entropy =     -367.49053686  energy(sigma->0) =     -367.49053686


--------------------------------------------------------------------------------------------------------




--------------------------------------- Iteration      1(  16)  ---------------------------------------


    POTLOK:  cpu time      0.2871: real time      0.2880
    SETDIJ:  cpu time      0.2168: real time      0.2168
     EDDAV:  cpu time     20.6496: real time     20.6502
       DOS:  cpu time      0.0003: real time      0.0003
    --------------------------------------------
      LOOP:  cpu time     21.1538: real time     21.1553

 eigenvalue-minimisations  :  1256
 total energy-change (2. order) : 0.2691195E-08  (-0.1953062E-09)
 number of electron     255.9999995 magnetization 
 augmentation part      -14.6376022 magnetization 

 Free energy of the ion-electron system (eV)
  ---------------------------------------------------
  alpha Z        PSCENC =       106.68659228
  Ewald energy   TEWEN  =     -7292.08615189
  -Hartree energ DENC   =      -471.20922818
  -exchange      EXHF   =         0.00000000
  -V(xc)+E(xc)   XCENC  =      -540.24160247
  PAW double counting   =     28086.95062269   -26987.22025605
  entropy T*S    EENTRO =        -0.00000000
  eigenvalues    EBANDS =       164.86246257
  atomic energy  EATOM  =      6564.76702419
  Solvation  Ediel_sol  =         0.00000000
  ---------------------------------------------------
  free energy    TOTEN  =      -367.49053686 eV

  energy without entropy =     -367.49053686  energy(sigma->0) =     -367.49053686


--------------------------------------------------------------------------------------------------------




 average (electrostatic) potential at core
  the test charge radii are     0.9892
  (the norm of the test charge is              1.0000)
       1 -83.1298       2 -83.1295       3 -83.1298       4 -83.1300       5 -83.1298
       6 -83.1300       7 -83.1319       8 -83.1295       9 -83.1298      10 -83.1295
      11 -83.1297      12 -83.1300      13 -83.1298      14 -83.1300      15 -83.1277
      16 -83.1295      17 -83.1298      18 -83.1295      19 -83.1298      20 -83.1300
      21 -83.1297      22 -83.1300      23 -83.1277      24 -83.1295      25 -83.1298
      26 -83.1310      27 -83.1297      28 -83.1285      29 -83.1297      30 -83.1285
      31 -83.1319      32 -83.1310      33 -83.1298      34 -83.1294      35 -83.1297
      36 -83.1301      37 -83.1297      38 -83.1301      39 -83.1295      40 -83.1294
      41 -83.1297      42 -83.1300      43 -83.1299      44 -83.1295      45 -83.1297
      46 -83.1295      47 -83.1301      48 -83.1300      49 -83.1297      50 -83.1300
      51 -83.1297      52 -83.1295      53 -83.1299      54 -83.1295      55 -83.1301
      56 -83.1300      57 -83.1298      58 -83.1296      59 -83.1299      60 -83.1299
      61 -83.1299      62 -83.1299      63 -83.1295      64 -83.1296
 
 
 
 E-fermi :   5.8186     XC(G=0):  -9.5197     alpha+bet :-11.8770

 Fermi energy:         5.8186010147

 k-point     1 :       0.0000    0.0000    0.0000
  band No.  band energies     occupation 
      1      -6.2263      2.00000
      2      -5.1500      2.00000
      3      -5.1486      2.00000
      4      -5.1481      2.00000
      5      -5.1481      2.00000
      6      -5.1476      2.00000
      7      -5.1463      2.00000
      8      -4.1922      2.00000
      9      -4.1895      2.00000
     10      -4.1885      2.00000
     11      -4.1883      2.00000
     12      -4.1883      2.00000
     13      -4.1882      2.00000
     14      -4.1882      2.00000
     15      -4.1882      2.00000
     16      -4.1881      2.00000
     17      -4.1880      2.00000
     18      -4.1869      2.00000
     19      -4.1843      2.00000
     20      -3.8991      2.00000
     21      -3.8984      2.00000
     22      -3.8974      2.00000
     23      -3.8967      2.00000
     24      -2.0984      2.00000
     25      -2.0973      2.00000
     26      -2.0963      2.00000
     27      -2.0963      2.00000
     28      -2.0953      2.00000
     29      -2.0944      2.00000
     30      -1.9339      2.00000
     31      -1.9323      2.00000
     32      -1.9304      2.00000
     33      -1.9302      2.00000
     34      -1.9302      2.00000
     35      -1.9301      2.00000
     36      -1.9301      2.00000
     37      -1.9300      2.00000
     38      -1.9299      2.00000
     39      -1.9297      2.00000
     40      -1.9279      2.00000
     41      -1.9262      2.00000
     42      -1.2708      2.00000
     43      -1.2697      2.00000
     44      -1.2694      2.00000
     45      -1.2682      2.00000
     46       0.2253      2.00000
     47       0.2256      2.00000
     48       0.2280      2.00000
     49       0.2282      2.00000
     50       0.2282      2.00000
     51       0.2283      2.00000
     52       0.2283      2.00000
     53       0.2284      2.00000
     54       0.2284      2.00000
     55       0.2286      2.00000
     56       0.2310      2.00000
     57       0.2313      2.00000
     58       1.8310      2.00000
     59       1.8326      2.00000
     60       1.8329      2.00000
     61       1.8330      2.00000
     62       1.8332      2.00000
     63       1.8334      2.00000
     64       1.8334      2.00000
     65       1.8335      2.00000
     66       1.8337      2.00000
     67       1.8338      2.00000
     68       1.8340      2.00000
     69       1.8356      2.00000
     70       1.9311      2.00000
     71       1.9312      2.00000
     72       1.9315      2.00000
     73       1.9327      2.00000
     74       1.9328      2.00000
     75       1.9328      2.00000
     76       1.9328      2.00000
     77       1.9328      2.00000
     78       1.9330      2.00000
     79       1.9341      2.00000
     80       1.9344      2.00000
     81       1.9346      2.00000
     82       2.1829      2.00000
     83       2.1838      2.00000
     84       2.1848      2.00000
     85       2.1848      2.00000
     86       2.1858      2.00000
     87       2.1867      2.00000
     88       2.8525      2.00000
     89       2.8533      2.00000
     90       2.8534      2.00000
     91       2.8534      2.00000
     92       2.8535      2.00000
     93       2.8543      2.00000
     94       3.8101      2.00000
     95       3.8125      2.00000
     96       3.8132      2.00000
     97       3.8133      2.00000
     98       3.8134      2.00000
     99       3.8134      2.00000
    100       3.8134      2.00000
    101       3.8134      2.00000
    102       3.8135      2.00000
    103       3.8136      2.00000
    104       3.8143      2.00000
    105       3.8167      2.00000
    106       4.3753      2.00000
    107       4.3771      2.00000
    108       4.3783      2.00000
    109       4.3784      2.00000
    110       4.3786      2.00000
    111       4.3787      2.00000
    112       4.3788      2.00000
    113       4.3789      2.00000
    114       4.3790      2.00000
    115       4.3792      2.00000
    116       4.3804      2.00000
    117       4.3821      2.00000
    118       4.5076      2.00000
    119       4.5094      2.00000
    120       4.5098      2.00000
    121       4.5100      2.00000
    122       4.5102      2.00000
    123       4.5104      2.00000
    124       4.5109      2.00000
    125       4.5128      2.00000
    126       5.7051      2.00000
    127       5.7066      2.00000
    128       5.7081      2.00000
    129       6.3116      0.00000
    130       6.3122      0.00000
    131       6.3131      0.00000
    132       6.3131      0.00000
    133       6.3140      0.00000
    134       6.3145      0.00000
    135       6.7474      0.00000
    136       6.7476      0.00000
    137       6.7488      0.00000
    138       6.7488      0.00000
    139       6.7499      0.00000
    140       6.7502      0.00000
    141       7.1434      0.00000
    142       7.1436      0.00000
    143       7.1438      0.00000
    144       7.1440      0.00000
    145       8.0657      0.00000
    146       8.0658      0.00000
    147       8.0679      0.00000
    148       8.0679      0.00000
    149       8.0681      0.00000
    150       8.0681      0.00000
    151       8.0681      0.00000
    152       8.0682      0.00000
    153       8.0683      0.00000
    154       8.0684      0.00000
    155       8.0704      0.00000
    156       8.0705      0.00000
    157       8.2201      0.00000
    158       8.2209      0.00000
    159       8.2218      0.00000
    160       8.7334      0.00000
    161       8.7338      0.00000
    162       8.7345      0.00000

 k-point     2 :       0.5000    0.0000    0.0000
  band No.  band energies     occupation 
      1      -5.9551      2.00000
      2      -5.9537      2.00000
      3      -4.9032      2.00000
      4      -4.9023      2.00000
      5      -4.9013      2.00000
      6      -4.9012      2.00000
      7      -4.9011      2.00000
      8      -4.9010      2.00000
      9      -4.9000      2.00000
     10      -4.8992      2.00000
     11      -4.0597      2.00000
     12      -4.0586      2.00000
     13      -4.0577      2.00000
     14      -4.0576      2.00000
     15      -4.0575      2.00000
     16      -4.0574      2.00000
     17      -4.0565      2.00000
     18      -4.0555      2.00000
     19      -3.8412      2.00000
     20      -3.8389      2.00000
     21      -3.1203      2.00000
     22      -3.1179      2.00000
     23      -3.1171      2.00000
     24      -3.1169      2.00000
     25      -3.1167      2.00000
     26      -3.1165      2.00000
     27      -3.1157      2.00000
     28      -3.1133      2.00000
     29      -2.0194      2.00000
     30      -2.0175      2.00000
     31      -2.0174      2.00000
     32      -2.0173      2.00000
     33      -2.0172      2.00000
     34      -2.0170      2.00000
     35      -2.0170      2.00000
     36      -2.0151      2.00000
     37      -0.8558      2.00000
     38      -0.8549      2.00000
     39      -0.8539      2.00000
     40      -0.8537      2.00000
     41      -0.8534      2.00000
     42      -0.8532      2.00000
     43      -0.8521      2.00000
     44      -0.8513      2.00000
     45      -0.6775      2.00000
     46      -0.6764      2.00000
     47      -0.6757      2.00000
     48      -0.6751      2.00000
     49      -0.6751      2.00000
     50      -0.6746      2.00000
     51      -0.6739      2.00000
     52      -0.6727      2.00000
     53      -0.0336      2.00000
     54      -0.0321      2.00000
     55       1.4119      2.00000
     56       1.4135      2.00000
     57       1.4146      2.00000
     58       1.4147      2.00000
     59       1.4148      2.00000
     60       1.4149      2.00000
     61       1.4158      2.00000
     62       1.4174      2.00000
     63       1.4552      2.00000
     64       1.4562      2.00000
     65       1.4566      2.00000
     66       1.4567      2.00000
     67       1.4572      2.00000
     68       1.4573      2.00000
     69       1.4579      2.00000
     70       1.4588      2.00000
     71       2.2752      2.00000
     72       2.2753      2.00000
     73       2.2753      2.00000
     74       2.2758      2.00000
     75       2.2758      2.00000
     76       2.2762      2.00000
     77       2.2762      2.00000
     78       2.2764      2.00000
     79       2.9752      2.00000
     80       2.9768      2.00000
     81       2.9769      2.00000
     82       2.9774      2.00000
     83       2.9777      2.00000
     84       2.9781      2.00000
     85       2.9782      2.00000
     86       2.9798      2.00000
     87       3.0969      2.00000
     88       3.0981      2.00000
     89       3.0988      2.00000
     90       3.0998      2.00000
     91       3.1096      2.00000
     92       3.1101      2.00000
     93       3.1109      2.00000
     94       3.1111      2.00000
     95       3.1114      2.00000
     96       3.1115      2.00000
     97       3.1126      2.00000
     98       3.1129      2.00000
     99       3.2309      2.00000
    100       3.2313      2.00000
    101       3.2313      2.00000
    102       3.2319      2.00000
    103       3.2321      2.00000
    104       3.2327      2.00000
    105       3.2328      2.00000
    106       3.2331      2.00000
    107       4.2734      2.00000
    108       4.2735      2.00000
    109       4.2741      2.00000
    110       4.2743      2.00000
    111       4.2744      2.00000
    112       4.2746      2.00000
    113       4.2753      2.00000
    114       4.2753      2.00000
    115       4.3613      2.00000
    116       4.3614      2.00000
    117       4.4376      2.00000
    118       4.4412      2.00000
    119       4.4418      2.00000
    120       4.4418      2.00000
    121       4.4419      2.00000
    122       4.4419      2.00000
    123       4.4425      2.00000
    124       4.4461      2.00000
    125       4.8933      2.00000
    126       4.8952      2.00000
    127       4.8962      2.00000
    128       4.8981      2.00000
    129       6.2233      0.00000
    130       6.2248      0.00000
    131       7.1389      0.00000
    132       7.1401      0.00000
    133       7.5828      0.00000
    134       7.5842      0.00000
    135       7.5844      0.00000
    136       7.5849      0.00000
    137       7.5850      0.00000
    138       7.5855      0.00000
    139       7.5857      0.00000
    140       7.5871      0.00000
    141       7.6489      0.00000
    142       7.6495      0.00000
    143       7.9764      0.00000
    144       7.9783      0.00000
    145       7.9787      0.00000
    146       7.9788      0.00000
    147       7.9789      0.00000
    148       7.9790      0.00000
    149       7.9795      0.00000
    150       7.9813      0.00000
    151       8.0765      0.00000
    152       8.0780      0.00000
    153       8.0781      0.00000
    154       8.0782      0.00000
    155       8.0787      0.00000
    156       8.0789      0.00000
    157       8.0791      0.00000
    158       8.0805      0.00000
    159       8.4854      0.00000
    160       8.4860      0.00000
    161       8.4865      0.00000
    162       8.4873      0.00000

 k-point     3 :       0.0000    0.5000    0.0000
  band No.  band energies     occupation 
      1      -5.9544      2.00000
      2      -5.9544      2.00000
      3      -4.9041      2.00000
      4      -4.9018      2.00000
      5      -4.9015      2.00000
      6      -4.9013      2.00000
      7      -4.9011      2.00000
      8      -4.9009      2.00000
      9      -4.9006      2.00000
     10      -4.8983      2.00000
     11      -4.0603      2.00000
     12      -4.0584      2.00000
     13      -4.0577      2.00000
     14      -4.0577      2.00000
     15      -4.0574      2.00000
     16      -4.0574      2.00000
     17      -4.0567      2.00000
     18      -4.0549      2.00000
     19      -3.8401      2.00000
     20      -3.8401      2.00000
     21      -3.1188      2.00000
     22      -3.1180      2.00000
     23      -3.1170      2.00000
     24      -3.1168      2.00000
     25      -3.1168      2.00000
     26      -3.1166      2.00000
     27      -3.1156      2.00000
     28      -3.1148      2.00000
     29      -2.0203      2.00000
     30      -2.0173      2.00000
     31      -2.0172      2.00000
     32      -2.0172      2.00000
     33      -2.0172      2.00000
     34      -2.0172      2.00000
     35      -2.0172      2.00000
     36      -2.0142      2.00000
     37      -0.8561      2.00000
     38      -0.8552      2.00000
     39      -0.8536      2.00000
     40      -0.8536      2.00000
     41      -0.8535      2.00000
     42      -0.8534      2.00000
     43      -0.8519      2.00000
     44      -0.8510      2.00000
     45      -0.6775      2.00000
     46      -0.6762      2.00000
     47      -0.6753      2.00000
     48      -0.6752      2.00000
     49      -0.6750      2.00000
     50      -0.6750      2.00000
     51      -0.6741      2.00000
     52      -0.6727      2.00000
     53      -0.0329      2.00000
     54      -0.0329      2.00000
     55       1.4128      2.00000
     56       1.4131      2.00000
     57       1.4146      2.00000
     58       1.4146      2.00000
     59       1.4148      2.00000
     60       1.4149      2.00000
[...]
         0         1         2         3         4         5         6         7         8         9
 total charge-density along one line
 
 pseudopotential strength for first ion, spin component:           1
 18.412  25.686   0.000   0.000   0.000   0.000   0.000   0.000
 25.686  35.840   0.000   0.000   0.000   0.000   0.000   0.001
  0.000   0.000   4.178   0.000  -0.000   7.783   0.000  -0.000
  0.000   0.000   0.000   4.178  -0.000   0.000   7.783  -0.000
  0.000   0.000  -0.000  -0.000   4.178  -0.000  -0.000   7.783
  0.000   0.000   7.783   0.000  -0.000  14.512   0.000  -0.000
  0.000   0.000   0.000   7.783  -0.000   0.000  14.512  -0.000
  0.000   0.001  -0.000  -0.000   7.783  -0.000  -0.000  14.512
 total augmentation occupancy for first ion, spin component:           1
  5.892  -2.257  -0.000   0.000   0.019  -0.000   0.000  -0.006
 -2.257   0.973  -0.000  -0.000  -0.009  -0.000   0.000   0.003
 -0.000  -0.000   2.977   0.022   0.000  -0.674  -0.006   0.000
  0.000  -0.000   0.022   2.977   0.000  -0.006  -0.674   0.000
  0.019  -0.009   0.000   0.000   2.977   0.000   0.000  -0.674
 -0.000  -0.000  -0.674  -0.006   0.000   0.162   0.002   0.000
  0.000   0.000  -0.006  -0.674   0.000   0.002   0.162   0.000
 -0.006   0.003   0.000   0.000  -0.674   0.000   0.000   0.161


------------------------ aborting loop because EDIFF is reached ----------------------------------------


    CHARGE:  cpu time      0.8275: real time      0.8274
    FORLOC:  cpu time      0.1572: real time      0.1572
    FORNL :  cpu time     13.0131: real time     13.0113
    STRESS:  cpu time     34.6889: real time     34.6844
    FORCOR:  cpu time      0.4357: real time      0.4357
    FORHAR:  cpu time      0.2024: real time      0.2024
    MIXING:  cpu time      0.0117: real time      0.0117
    OFIELD:  cpu time      0.0000: real time      0.0000

  FORCE on cell =-STRESS in cart. coord.  units (eV):
  Direction    XX          YY          ZZ          XY          YZ          ZX
  --------------------------------------------------------------------------------------
  Alpha Z   106.68659   106.68659   106.68659
  Ewald   -2430.71702 -2430.70746 -2430.70746    -0.00000     0.78119     0.00000
  Hartree   157.06844   157.07026   157.07026    -0.00000     0.08727    -0.00000
  E(xc)    -816.14358  -816.14371  -816.14371     0.00000    -0.01003    -0.00000
  Local    -934.29743  -934.30835  -934.30835    -0.00000    -0.81626    -0.00000
  n-local  2479.11712  2479.40094  2478.83725    -0.00000     0.16081     0.00000
  augment  -368.08889  -368.08899  -368.08899     0.00000    -0.00710     0.00000
  Kinetic  1801.49202  1802.83962  1800.14364     0.00000    -0.09991    -0.00000
  Fock        0.00000     0.00000     0.00000     0.00000     0.00000     0.00000
  -------------------------------------------------------------------------------------
  Total      -4.88275    -4.88094    -4.88094     0.00000     0.09597     0.00000
  in kB      -6.05300    -6.05075    -6.05075     0.00000     0.11897     0.00000
  external pressure =       -6.05 kB  Pullay stress =        0.00 kB


 VOLUME and BASIS-vectors are now :
 -----------------------------------------------------------------------------
  energy-cutoff  :      318.00
  volume of cell :     1292.42
      direct lattice vectors                 reciprocal lattice vectors
    10.892683120  0.000000000  0.000000000     0.091804745  0.000000000  0.000000000
     0.000000000 10.892683120  0.000000000     0.000000000  0.091804745  0.000000000
     0.000000000  0.000000000 10.892683120     0.000000000  0.000000000  0.091804745

  length of vectors
    10.892683120 10.892683120 10.892683120     0.091804745  0.091804745  0.091804745


 FORCES acting on ions
    electron-ion (+dipol)            ewald-force                    non-local-force                 convergence-correction
 -----------------------------------------------------------------------------------------------
   0.517E+00 -.300E-10 0.289E-07   -.470E+00 0.289E-14 0.244E-14   -.177E+00 -.216E-23 -.466E-23   0.381E-05 -.442E-14 -.128E-12
   -.839E-02 -.201E+00 -.201E+00   0.659E-02 0.175E+00 0.175E+00   0.339E-01 0.484E-01 0.484E-01   0.172E-05 -.146E-05 -.146E-05
   -.299E-01 -.554E-01 -.162E-02   0.295E-01 0.560E-01 -.799E-14   0.221E-02 0.118E-02 0.690E-03   -.960E-05 -.296E-05 -.283E-05
   -.104E-01 -.200E+00 0.200E+00   0.833E-02 0.174E+00 -.174E+00   0.339E-01 0.477E-01 -.477E-01   -.659E-05 0.449E-06 -.449E-06
   -.299E-01 -.162E-02 -.554E-01   0.295E-01 -.755E-14 0.560E-01   0.221E-02 0.690E-03 0.118E-02   -.960E-05 -.283E-05 -.296E-05
   -.104E-01 0.200E+00 -.200E+00   0.833E-02 -.174E+00 0.174E+00   0.339E-01 -.477E-01 0.477E-01   -.659E-05 -.449E-06 0.449E-06
   0.263E-01 -.500E-02 -.500E-02   -.365E-01 0.105E-03 0.105E-03   0.597E-02 0.584E-02 0.584E-02   -.556E-05 0.243E-05 0.243E-05
   -.839E-02 0.201E+00 0.201E+00   0.659E-02 -.175E+00 -.175E+00   0.339E-01 -.484E-01 -.484E-01   0.172E-05 0.146E-05 0.146E-05
   0.207E-01 0.232E-12 0.888E-10   -.193E-01 0.400E-14 0.222E-14   -.845E-03 0.118E-23 0.866E-23   -.719E-05 -.190E-13 0.129E-12
   0.131E-01 -.516E-02 0.177E-01   -.148E-01 0.663E-02 -.166E-01   0.127E-02 -.106E-02 -.770E-03   -.167E-05 -.229E-05 0.188E-05
   -.657E-03 -.604E-02 -.513E-03   0.973E-03 0.463E-02 0.133E-14   0.138E-04 0.808E-03 0.438E-03   -.571E-05 -.616E-06 0.132E-06
   0.129E-01 -.519E-02 -.178E-01   -.147E-01 0.666E-02 0.167E-01   0.128E-02 -.105E-02 0.778E-03   -.923E-05 -.113E-05 -.173E-05
   -.299E-01 0.162E-02 0.554E-01   0.295E-01 -.711E-14 -.560E-01   0.221E-02 -.690E-03 -.118E-02   -.960E-05 0.283E-05 0.296E-05
   0.129E-01 0.519E-02 0.178E-01   -.147E-01 -.666E-02 -.167E-01   0.128E-02 0.105E-02 -.778E-03   -.923E-05 0.113E-05 0.173E-05
   0.263E-01 0.474E-02 -.474E-02   -.365E-01 0.105E-03 -.105E-03   0.595E-02 -.577E-02 0.577E-02   -.461E-05 -.221E-05 0.221E-05
   0.131E-01 0.516E-02 -.177E-01   -.148E-01 -.663E-02 0.166E-01   0.127E-02 0.106E-02 0.770E-03   -.167E-05 0.229E-05 -.188E-05
   0.207E-01 0.330E-12 -.497E-11   -.193E-01 0.400E-14 0.444E-14   -.845E-03 -.833E-23 0.159E-23   -.719E-05 0.175E-14 -.113E-12
   0.131E-01 0.177E-01 -.516E-02   -.148E-01 -.166E-01 0.663E-02   0.127E-02 -.770E-03 -.106E-02   -.167E-05 0.188E-05 -.229E-05
   -.299E-01 0.554E-01 0.162E-02   0.295E-01 -.560E-01 -.178E-14   0.221E-02 -.118E-02 -.690E-03   -.960E-05 0.296E-05 0.283E-05
   0.129E-01 0.178E-01 0.519E-02   -.147E-01 -.167E-01 -.666E-02   0.128E-02 -.778E-03 0.105E-02   -.923E-05 0.173E-05 0.113E-05
   -.657E-03 -.513E-03 -.604E-02   0.973E-03 0.666E-14 0.463E-02   0.138E-04 0.438E-03 0.808E-03   -.571E-05 0.132E-06 -.616E-06
   0.129E-01 -.178E-01 -.519E-02   -.147E-01 0.167E-01 0.666E-02   0.128E-02 0.778E-03 -.105E-02   -.923E-05 -.173E-05 -.113E-05
   0.263E-01 -.474E-02 0.474E-02   -.365E-01 -.105E-03 0.105E-03   0.595E-02 0.577E-02 -.577E-02   -.461E-05 0.221E-05 -.221E-05
   0.131E-01 -.177E-01 0.516E-02   -.148E-01 0.166E-01 -.663E-02   0.127E-02 0.770E-03 0.106E-02   -.167E-05 -.188E-05 0.229E-05
   -.257E-02 -.181E-12 -.514E-10   -.798E-02 0.488E-14 0.888E-15   0.664E-02 0.291E-23 -.101E-23   -.111E-04 0.141E-13 0.113E-12
   0.137E-01 0.807E-03 0.807E-03   -.749E-02 -.359E-02 -.359E-02   -.410E-02 0.303E-02 0.303E-02   -.487E-05 0.702E-06 0.702E-06
   -.657E-03 0.604E-02 0.513E-03   0.973E-03 -.463E-02 0.000E+00   0.138E-04 -.808E-03 -.438E-03   -.571E-05 0.616E-06 -.132E-06
   0.136E-01 0.813E-03 -.813E-03   -.744E-02 -.360E-02 0.360E-02   -.412E-02 0.303E-02 -.303E-02   -.103E-04 0.132E-05 -.132E-05
   -.657E-03 0.513E-03 0.604E-02   0.973E-03 0.711E-14 -.463E-02   0.138E-04 -.438E-03 -.808E-03   -.571E-05 -.132E-06 0.616E-06
   0.136E-01 -.813E-03 0.813E-03   -.744E-02 0.360E-02 -.360E-02   -.412E-02 -.303E-02 0.303E-02   -.103E-04 -.132E-05 0.132E-05
   0.263E-01 0.500E-02 0.500E-02   -.365E-01 -.105E-03 -.105E-03   0.597E-02 -.584E-02 -.584E-02   -.556E-05 -.243E-05 -.243E-05
   0.137E-01 -.807E-03 -.807E-03   -.749E-02 0.359E-02 0.359E-02   -.410E-02 -.303E-02 -.303E-02   -.487E-05 -.702E-06 -.702E-06
   -.604E-01 -.348E-10 -.253E-07   0.611E-01 -.355E-14 0.000E+00   -.479E-03 0.111E-23 0.146E-23   0.336E-05 -.248E-13 -.165E-12
   -.514E-01 0.172E-01 0.172E-01   0.519E-01 -.166E-01 -.166E-01   -.587E-03 -.277E-03 -.277E-03   -.311E-05 -.160E-05 -.160E-05
   -.297E-01 0.557E-01 -.168E-02   0.294E-01 -.564E-01 -.377E-14   0.222E-02 -.118E-02 0.738E-03   0.438E-05 0.606E-05 -.108E-05
   -.515E-01 0.173E-01 -.173E-01   0.520E-01 -.167E-01 0.167E-01   -.584E-03 -.277E-03 0.277E-03   0.873E-05 0.323E-05 -.323E-05
   -.297E-01 -.168E-02 0.557E-01   0.294E-01 -.133E-14 -.564E-01   0.222E-02 0.738E-03 -.118E-02   0.438E-05 -.108E-05 0.606E-05
   -.515E-01 -.173E-01 0.173E-01   0.520E-01 0.167E-01 -.167E-01   -.584E-03 0.277E-03 -.277E-03   0.873E-05 -.323E-05 0.323E-05
   -.200E-01 0.106E-03 0.106E-03   0.205E-01 -.316E-04 -.316E-04   -.564E-03 -.188E-05 -.188E-05   0.950E-05 0.199E-05 0.199E-05
   -.514E-01 -.172E-01 -.172E-01   0.519E-01 0.166E-01 0.166E-01   -.587E-03 0.277E-03 0.277E-03   -.311E-05 0.160E-05 0.160E-05
   -.161E-01 0.538E-12 0.882E-10   0.152E-01 0.711E-14 0.888E-15   0.950E-03 0.805E-23 -.509E-24   0.102E-04 -.247E-13 0.166E-12
   -.154E-01 0.369E-02 -.871E-02   0.150E-01 -.358E-02 0.800E-02   0.650E-03 0.138E-03 0.922E-03   0.417E-06 0.182E-06 -.133E-05
   -.588E-03 0.604E-02 -.507E-03   0.905E-03 -.464E-02 0.155E-14   0.429E-05 -.804E-03 0.432E-03   0.332E-05 0.277E-05 0.151E-06
   -.154E-01 0.375E-02 0.878E-02   0.149E-01 -.361E-02 -.806E-02   0.654E-03 0.108E-03 -.933E-03   0.930E-05 0.320E-05 0.257E-05
   -.297E-01 0.168E-02 -.557E-01   0.294E-01 -.488E-14 0.564E-01   0.222E-02 -.738E-03 0.118E-02   0.438E-05 0.108E-05 -.606E-05
   -.154E-01 -.375E-02 -.878E-02   0.149E-01 0.361E-02 0.806E-02   0.654E-03 -.108E-03 0.933E-03   0.930E-05 -.320E-05 -.257E-05
   -.200E-01 -.513E-04 0.513E-04   0.205E-01 -.316E-04 0.316E-04   -.569E-03 0.454E-05 -.454E-05   0.867E-05 0.309E-05 -.309E-05
   -.154E-01 -.369E-02 0.871E-02   0.150E-01 0.358E-02 -.800E-02   0.650E-03 -.138E-03 -.922E-03   0.417E-06 -.182E-06 0.133E-05
   -.161E-01 0.299E-12 -.526E-11   0.152E-01 0.173E-13 0.355E-14   0.950E-03 0.125E-24 0.139E-22   0.102E-04 0.233E-13 -.148E-12
   -.154E-01 -.871E-02 0.369E-02   0.150E-01 0.800E-02 -.358E-02   0.650E-03 0.922E-03 0.138E-03   0.417E-06 -.133E-05 0.182E-06
   -.297E-01 -.557E-01 0.168E-02   0.294E-01 0.564E-01 0.711E-14   0.222E-02 0.118E-02 -.738E-03   0.438E-05 -.606E-05 0.108E-05
   -.154E-01 -.878E-02 -.375E-02   0.149E-01 0.806E-02 0.361E-02   0.654E-03 0.933E-03 -.108E-03   0.930E-05 -.257E-05 -.320E-05
   -.588E-03 -.507E-03 0.604E-02   0.905E-03 0.711E-14 -.464E-02   0.429E-05 0.432E-03 -.804E-03   0.332E-05 0.151E-06 0.277E-05
   -.154E-01 0.878E-02 0.375E-02   0.149E-01 -.806E-02 -.361E-02   0.654E-03 -.933E-03 0.108E-03   0.930E-05 0.257E-05 0.320E-05
   -.200E-01 0.513E-04 -.513E-04   0.205E-01 0.316E-04 -.316E-04   -.569E-03 -.454E-05 0.454E-05   0.867E-05 -.309E-05 0.309E-05
   -.154E-01 0.871E-02 -.369E-02   0.150E-01 -.800E-02 0.358E-02   0.650E-03 -.922E-03 -.138E-03   0.417E-06 0.133E-05 -.182E-06
   -.697E-02 0.434E-12 -.504E-10   0.747E-02 0.249E-13 0.000E+00   -.290E-03 0.130E-23 -.130E-23   0.132E-04 0.230E-13 0.149E-12
   -.758E-02 -.213E-02 -.213E-02   0.748E-02 0.259E-02 0.259E-02   -.867E-04 -.187E-03 -.187E-03   0.540E-05 0.295E-06 0.295E-06
   -.588E-03 -.604E-02 0.507E-03   0.905E-03 0.464E-02 0.888E-15   0.429E-05 0.804E-03 -.432E-03   0.332E-05 -.277E-05 -.151E-06
   -.755E-02 -.215E-02 0.215E-02   0.745E-02 0.261E-02 -.261E-02   -.882E-04 -.184E-03 0.184E-03   0.109E-04 -.236E-05 0.236E-05
   -.588E-03 0.507E-03 -.604E-02   0.905E-03 0.120E-13 0.464E-02   0.429E-05 -.432E-03 0.804E-03   0.332E-05 -.151E-06 -.277E-05
   -.755E-02 0.215E-02 -.215E-02   0.745E-02 -.261E-02 0.261E-02   -.882E-04 0.184E-03 -.184E-03   0.109E-04 0.236E-05 -.236E-05
   -.200E-01 -.106E-03 -.106E-03   0.205E-01 0.316E-04 0.316E-04   -.564E-03 0.188E-05 0.188E-05   0.950E-05 -.199E-05 -.199E-05
   -.758E-02 0.213E-02 0.213E-02   0.748E-02 -.259E-02 -.259E-02   -.867E-04 0.187E-03 0.187E-03   0.540E-05 -.295E-06 -.295E-06
 -----------------------------------------------------------------------------------------------
   0.219E-06 -.610E-10 0.252E-08   0.607E-13 0.237E-13 0.188E-13   0.365E-05 -.976E-18 -.583E-17   0.534E-07 0.601E-15 0.979E-13
 
 
 POSITION                                       TOTAL-FORCE (eV/Angst)
 -----------------------------------------------------------------------------------
      2.73317      2.72317      2.72317        -0.130238     -0.000000      0.000000
      4.08476      4.08476      4.08476         0.032058      0.022419      0.022419
      0.00000      0.00000      2.72317         0.001835      0.001825     -0.000933
      1.36159      1.36159      4.08476         0.031753      0.021825     -0.021825
      0.00000      2.72317      0.00000         0.001835     -0.000933      0.001825
      1.36159      4.08476      1.36159         0.031753     -0.021825      0.021825
      2.72317      0.00000      0.00000        -0.004264      0.000945      0.000945
      4.08476      1.36159      1.36159         0.032058     -0.022419     -0.022419
      2.72317      2.72317      8.16951         0.000478     -0.000000      0.000000
      4.08476      4.08476      9.53110        -0.000511      0.000407      0.000339
      0.00000      0.00000      8.16951         0.000325     -0.000603     -0.000075
      1.36159      1.36159      9.53110        -0.000507      0.000411     -0.000335
      0.00000      2.72317      5.44634         0.001835      0.000933     -0.001825
      1.36159      4.08476      6.80793        -0.000507     -0.000411      0.000335
      2.72317      0.00000      5.44634        -0.004254     -0.000933      0.000933
      4.08476      1.36159      6.80793        -0.000511     -0.000407     -0.000339
      2.72317      8.16951      2.72317         0.000478     -0.000000      0.000000
      4.08476      9.53110      4.08476        -0.000511      0.000339      0.000407
      0.00000      5.44634      2.72317         0.001835     -0.001825      0.000933
      1.36159      6.80793      4.08476        -0.000507      0.000335     -0.000411
      0.00000      8.16951      0.00000         0.000325     -0.000075     -0.000603
      1.36159      9.53110      1.36159        -0.000507     -0.000335      0.000411
      2.72317      5.44634      0.00000        -0.004254      0.000933     -0.000933
      4.08476      6.80793      1.36159        -0.000511     -0.000339     -0.000407
      2.72317      8.16951      8.16951        -0.003922     -0.000000      0.000000
      4.08476      9.53110      9.53110         0.002090      0.000247      0.000247
      0.00000      5.44634      8.16951         0.000325      0.000603      0.000075
      1.36159      6.80793      9.53110         0.002081      0.000246     -0.000246
      0.00000      8.16951      5.44634         0.000325      0.000075      0.000603
      1.36159      9.53110      6.80793         0.002081     -0.000246      0.000246
      2.72317      5.44634      5.44634        -0.004264     -0.000945     -0.000945
      4.08476      6.80793      6.80793         0.002090     -0.000247     -0.000247
      8.16951      2.72317      2.72317         0.000176     -0.000000      0.000000
      9.53110      4.08476      4.08476        -0.000090      0.000337      0.000337
      5.44634      0.00000      2.72317         0.001851     -0.001838     -0.000944
      6.80793      1.36159      4.08476        -0.000090      0.000336     -0.000336
      5.44634      2.72317      0.00000         0.001851     -0.000944     -0.001838
      6.80793      4.08476      1.36159        -0.000090     -0.000336      0.000336
      8.16951      0.00000      0.00000        -0.000037      0.000075      0.000075
      9.53110      1.36159      1.36159        -0.000090     -0.000337     -0.000337
      8.16951      2.72317      8.16951         0.000039     -0.000000      0.000000
      9.53110      4.08476      9.53110         0.000215      0.000244      0.000205
      5.44634      0.00000      8.16951         0.000325      0.000602     -0.000075
      6.80793      1.36159      9.53110         0.000220      0.000249     -0.000208
      5.44634      2.72317      5.44634         0.001851      0.000944      0.001838
      6.80793      4.08476      6.80793         0.000220     -0.000249      0.000208
      8.16951      0.00000      5.44634        -0.000034     -0.000075      0.000075
      9.53110      1.36159      6.80793         0.000215     -0.000244     -0.000205
      8.16951      8.16951      2.72317         0.000039     -0.000000      0.000000
      9.53110      9.53110      4.08476         0.000215      0.000205      0.000244
      5.44634      5.44634      2.72317         0.001851      0.001838      0.000944
      6.80793      6.80793      4.08476         0.000220      0.000208     -0.000249
      5.44634      8.16951      0.00000         0.000325     -0.000075      0.000602
      6.80793      9.53110      1.36159         0.000220     -0.000208      0.000249
      8.16951      5.44634      0.00000        -0.000034      0.000075     -0.000075
      9.53110      6.80793      1.36159         0.000215     -0.000205     -0.000244
      8.16951      8.16951      8.16951         0.000221     -0.000000      0.000000
      9.53110      9.53110      9.53110        -0.000177      0.000270      0.000270
      5.44634      5.44634      8.16951         0.000325     -0.000602      0.000075
      6.80793      6.80793      9.53110        -0.000177      0.000268     -0.000268
      5.44634      8.16951      5.44634         0.000325      0.000075     -0.000602
      6.80793      9.53110      6.80793        -0.000177     -0.000268      0.000268
      8.16951      5.44634      5.44634        -0.000037     -0.000075     -0.000075
      9.53110      6.80793      6.80793        -0.000177     -0.000270     -0.000270
 -----------------------------------------------------------------------------------
    total drift:                                0.000004     -0.000000      0.000000


--------------------------------------------------------------------------------------------------------



  FREE ENERGIE OF THE ION-ELECTRON SYSTEM (eV)
  ---------------------------------------------------
  free  energy   TOTEN  =      -367.49053686 eV

  energy  without entropy=     -367.49053686  energy(sigma->0) =     -367.49053686
 


--------------------------------------------------------------------------------------------------------


    POTLOK:  cpu time      0.4988: real time      0.4988


--------------------------------------------------------------------------------------------------------


     LOOP+:  cpu time    544.4105: real time    544.4325
    4ORBIT:  cpu time      0.0000: real time      0.0000

 total amount of memory used by VASP MPI-rank0   403626. kBytes
=======================================================================

   base      :      30000. kBytes
   nonl-proj :      23462. kBytes
   fftplans  :     155001. kBytes
   grid      :      61407. kBytes
   one-center:        196. kBytes
   wavefun   :     133560. kBytes
 
  
  
 General timing and accounting informations for this job:
 ========================================================
  
                  Total CPU time used (sec):      551.897
                            User time (sec):      547.574
                          System time (sec):        4.323
                         Elapsed time (sec):      552.278
  
                   Maximum memory used (kb):     1077368.
                   Average memory used (kb):          N/A
  
                          Minor page faults:       330968
                          Major page faults:            0
                 Voluntary context switches:         6350
