 vasp.6.3.0 20Jan22 (build Aug 13 2022 13:28:16) complex                        
  
 executed on             LinuxIFC date 2022.09.07  11:51:43
 running on    2 total cores
 distrk:  each k-point on    2 cores,    1 groups
 distr:  one band on NCORE=   1 cores,    2 groups


--------------------------------------------------------------------------------------------------------


 INCAR:
   ADDGRID = True
   EDIFF = 1e-08
   ENCUT = 318
   GGA = Ps
   IALGO = 38
   IBRION = -1
   ISMEAR = 0
   LCHARG = False
   LREAL = False
   LWAVE = False
   NELMIN = 5
   NPAR = 4
   PREC = Accurate
   SIGMA = 0.02

 POTCAR:    PAW_PBE Si 05Jan2001                  
 -----------------------------------------------------------------------------
|                                                                             |
|           W    W    AA    RRRRR   N    N  II  N    N   GGGG   !!!           |
|           W    W   A  A   R    R  NN   N  II  NN   N  G    G  !!!           |
|           W    W  A    A  R    R  N N  N  II  N N  N  G       !!!           |
|           W WW W  AAAAAA  RRRRR   N  N N  II  N  N N  G  GGG   !            |
|           WW  WW  A    A  R   R   N   NN  II  N   NN  G    G                |
|           W    W  A    A  R    R  N    N  II  N    N   GGGG   !!!           |
|                                                                             |
|     The value NPAR = 4 specified in the INCAR file was overwritten,         |
|     because it was not compatible with the 2 processes available:           |
|     NPAR = 2                                                                |
|     was used instead, please check that this makes sense for your           |
|     machine.                                                                |
|                                                                             |
 -----------------------------------------------------------------------------

 POTCAR:    PAW_PBE Si 05Jan2001                  
   VRHFIN =Si: s2p2                                                                                 
   LEXCH  = PE                                                                                      
   EATOM  =   103.0669 eV,    7.5752 Ry                                                             
                                                                                                    
   TITEL  = PAW_PBE Si 05Jan2001                                                                    
   LULTRA =        F    use ultrasoft PP ?                                                          
   IUNSCR =        1    unscreen: 0-lin 1-nonlin 2-no                                               
   RPACOR =    1.500    partial core radius                                                         
   POMASS =   28.085; ZVAL   =    4.000    mass and valenz                                          
   RCORE  =    1.900    outmost cutoff radius                                                       
   RWIGS  =    2.480; RWIGS  =    1.312    wigner-seitz radius (au A)                               
   ENMAX  =  245.345; ENMIN  =  184.009 eV                                                          
   ICORE  =        2    local potential                                                             
   LCOR   =        T    correct aug charges                                                         
   LPAW   =        T    paw PP                                                                      
   EAUG   =  322.069                                                                                
   DEXC   =    0.000                                                                                
   RMAX   =    1.950    core radius for proj-oper                                                   
   RAUG   =    1.300    factor for augmentation sphere                                              
   RDEP   =    1.993    radius for radial grids                                                     
   RDEPT  =    1.837    core radius for aug-charge                                                  
                                                                                                    
   Atomic configuration                                                                             
    6 entries                                                                                       
     n  l   j            E        occ.                                                              
     1  0  0.50     -1785.8828   2.0000                                                             
     2  0  0.50      -139.4969   2.0000                                                             
     2  1  1.50       -95.5546   6.0000                                                             
     3  0  0.50       -10.8127   2.0000                                                             
     3  1  0.50        -4.0811   2.0000                                                             
     3  2  1.50        -4.0817   0.0000                                                             
   Description                                                                                      
     l       E           TYP  RCUT    TYP  RCUT                                                     
     0    -10.8127223     23  1.900                                                                 
     0     -7.6451159     23  1.900                                                                 
     1     -4.0811372     23  1.900                                                                 
     1      2.4879257     23  1.900                                                                 
     2     -4.0817478      7  1.900                                                                 
  local pseudopotential read in
  partial core-charges read in
  partial kinetic energy density read in
  atomic valenz-charges read in
  non local Contribution for L=           0  read in
    real space projection operators read in
  non local Contribution for L=           0  read in
    real space projection operators read in
  non local Contribution for L=           1  read in
    real space projection operators read in
  non local Contribution for L=           1  read in
    real space projection operators read in
    PAW grid and wavefunctions read in
 
   number of l-projection  operators is LMAX  =           4
   number of lm-projection operators is LMMAX =           8
 
 -----------------------------------------------------------------------------
|                                                                             |
|               ----> ADVICE to this user running VASP <----                  |
|                                                                             |
|     You have a (more or less) 'large supercell' and for larger cells it     |
|     might be more efficient to use real-space projection operators.         |
|     Therefore, try LREAL= Auto in the INCAR file.                           |
|     Mind: For very accurate calculation, you might also keep the            |
|     reciprocal projection scheme (i.e. LREAL=.FALSE.).                      |
|                                                                             |
 -----------------------------------------------------------------------------

 -----------------------------------------------------------------------------
|                                                                             |
|               ----> ADVICE to this user running VASP <----                  |
|                                                                             |
|     You enforced a specific xc type in the INCAR file but a different       |
|     type was found in the POTCAR file.                                      |
|     I HOPE YOU KNOW WHAT YOU ARE DOING!                                     |
|                                                                             |
 -----------------------------------------------------------------------------

  PAW_PBE Si 05Jan2001                  :
 energy of atom  1       EATOM= -103.0669
 kinetic energy error for atom=    0.0016 (will be added to EATOM!!)
 
 
 POSCAR: Si
  positions in cartesian coordinates
  No initial velocities read in
 exchange correlation table for  LEXCH =       14
   RHO(1)=    0.500       N(1)  =     2000
   RHO(2)=  100.500       N(2)  =     4000
 


--------------------------------------------------------------------------------------------------------


 ion  position               nearest neighbor table
   1  0.251  0.250  0.250-   2 2.35   8 2.35   6 2.36   4 2.36
   2  0.375  0.375  0.375-   1 2.35  31 2.36  45 2.36  51 2.36
   3  0.000  0.000  0.250-   4 2.36  22 2.36  40 2.36  50 2.36
   4  0.125  0.125  0.375-   3 2.36  13 2.36  15 2.36   1 2.36
   5  0.000  0.250  0.000-   6 2.36  12 2.36  40 2.36  42 2.36
   6  0.125  0.375  0.125-   5 2.36  19 2.36  23 2.36   1 2.36
   7  0.250  0.000  0.000-   8 2.36  12 2.36  22 2.36  26 2.36
   8  0.375  0.125  0.125-   1 2.35   7 2.36  35 2.36  37 2.36
   9  0.250  0.250  0.750-  10 2.36  12 2.36  14 2.36  16 2.36
  10  0.375  0.375  0.875-   9 2.36  23 2.36  37 2.36  59 2.36
  11  0.000  0.000  0.750-  12 2.36  30 2.36  48 2.36  58 2.36
  12  0.125  0.125  0.875-   5 2.36   7 2.36   9 2.36  11 2.36
  13  0.000  0.250  0.500-   4 2.36  14 2.36  34 2.36  48 2.36
  14  0.125  0.375  0.625-   9 2.36  13 2.36  27 2.36  31 2.36
  15  0.250  0.000  0.500-   4 2.36  16 2.36  18 2.36  30 2.36
  16  0.375  0.125  0.625-   9 2.36  15 2.36  43 2.36  45 2.36
  17  0.250  0.750  0.250-  18 2.36  20 2.36  22 2.36  24 2.36
  18  0.375  0.875  0.375-  15 2.36  17 2.36  35 2.36  61 2.36
  19  0.000  0.500  0.250-   6 2.36  20 2.36  34 2.36  56 2.36
  20  0.125  0.625  0.375-  17 2.36  19 2.36  29 2.36  31 2.36
  21  0.000  0.750  0.000-  22 2.36  28 2.36  56 2.36  58 2.36
  22  0.125  0.875  0.125-   3 2.36   7 2.36  17 2.36  21 2.36
  23  0.250  0.500  0.000-   6 2.36  10 2.36  24 2.36  28 2.36
  24  0.375  0.625  0.125-  17 2.36  23 2.36  51 2.36  53 2.36
  25  0.250  0.750  0.750-  26 2.36  28 2.36  30 2.36  32 2.36
  26  0.375  0.875  0.875-   7 2.36  25 2.36  43 2.36  53 2.36
  27  0.000  0.500  0.750-  14 2.36  28 2.36  42 2.36  64 2.36
  28  0.125  0.625  0.875-  21 2.36  23 2.36  25 2.36  27 2.36
  29  0.000  0.750  0.500-  20 2.36  30 2.36  50 2.36  64 2.36
  30  0.125  0.875  0.625-  11 2.36  15 2.36  25 2.36  29 2.36
  31  0.250  0.500  0.500-   2 2.36  14 2.36  20 2.36  32 2.36
  32  0.375  0.625  0.625-  25 2.36  31 2.36  59 2.36  61 2.36
  33  0.750  0.250  0.250-  34 2.36  36 2.36  38 2.36  40 2.36
  34  0.875  0.375  0.375-  13 2.36  19 2.36  33 2.36  63 2.36
  35  0.500  0.000  0.250-   8 2.36  18 2.36  36 2.36  54 2.36
  36  0.625  0.125  0.375-  33 2.36  35 2.36  45 2.36  47 2.36
  37  0.500  0.250  0.000-   8 2.36  10 2.36  38 2.36  44 2.36
  38  0.625  0.375  0.125-  33 2.36  37 2.36  51 2.36  55 2.36
  39  0.750  0.000  0.000-  40 2.36  44 2.36  54 2.36  58 2.36
  40  0.875  0.125  0.125-   3 2.36   5 2.36  33 2.36  39 2.36
  41  0.750  0.250  0.750-  42 2.36  44 2.36  46 2.36  48 2.36
  42  0.875  0.375  0.875-   5 2.36  27 2.36  41 2.36  55 2.36
  43  0.500  0.000  0.750-  16 2.36  26 2.36  44 2.36  62 2.36
  44  0.625  0.125  0.875-  37 2.36  39 2.36  41 2.36  43 2.36
  45  0.500  0.250  0.500-   2 2.36  16 2.36  36 2.36  46 2.36
  46  0.625  0.375  0.625-  41 2.36  45 2.36  59 2.36  63 2.36
  47  0.750  0.000  0.500-  36 2.36  48 2.36  50 2.36  62 2.36
  48  0.875  0.125  0.625-  11 2.36  13 2.36  41 2.36  47 2.36
  49  0.750  0.750  0.250-  50 2.36  52 2.36  54 2.36  56 2.36
  50  0.875  0.875  0.375-   3 2.36  29 2.36  47 2.36  49 2.36
  51  0.500  0.500  0.250-   2 2.36  24 2.36  38 2.36  52 2.36
  52  0.625  0.625  0.375-  49 2.36  51 2.36  61 2.36  63 2.36
  53  0.500  0.750  0.000-  24 2.36  26 2.36  54 2.36  60 2.36
  54  0.625  0.875  0.125-  35 2.36  39 2.36  49 2.36  53 2.36
  55  0.750  0.500  0.000-  38 2.36  42 2.36  56 2.36  60 2.36
  56  0.875  0.625  0.125-  19 2.36  21 2.36  49 2.36  55 2.36
  57  0.750  0.750  0.750-  58 2.36  60 2.36  62 2.36  64 2.36
  58  0.875  0.875  0.875-  11 2.36  21 2.36  39 2.36  57 2.36
  59  0.500  0.500  0.750-  10 2.36  32 2.36  46 2.36  60 2.36
  60  0.625  0.625  0.875-  53 2.36  55 2.36  57 2.36  59 2.36
  61  0.500  0.750  0.500-  18 2.36  32 2.36  52 2.36  62 2.36
  62  0.625  0.875  0.625-  43 2.36  47 2.36  57 2.36  61 2.36
  63  0.750  0.500  0.500-  34 2.36  46 2.36  52 2.36  64 2.36
  64  0.875  0.625  0.625-  27 2.36  29 2.36  57 2.36  63 2.36
 
  LATTYP: Found a simple cubic cell.
 ALAT       =    10.8926831200
  
  Lattice vectors:
  
 A1 = (  10.8926831200,   0.0000000000,   0.0000000000)
 A2 = (   0.0000000000,  10.8926831200,   0.0000000000)
 A3 = (   0.0000000000,   0.0000000000,  10.8926831200)


Analysis of symmetry for initial positions (statically):
=====================================================================
 Subroutine PRICEL returns:
 Original cell was already a primitive cell.
 

 Routine SETGRP: Setting up the symmetry group for a 
 simple cubic supercell.


 Subroutine GETGRP returns: Found  4 space group operations
 (whereof  2 operations were pure point group operations)
 out of a pool of 48 trial point group operations.


The static configuration has the point symmetry C_1h.
 The point group associated with its full space group is C_2v.


Analysis of symmetry for dynamics (positions and initial velocities):
=====================================================================
 Subroutine PRICEL returns:
 Original cell was already a primitive cell.
 

 Routine SETGRP: Setting up the symmetry group for a 
 simple cubic supercell.


 Subroutine GETGRP returns: Found  4 space group operations
 (whereof  2 operations were pure point group operations)
 out of a pool of 48 trial point group operations.


The dynamic configuration has the point symmetry C_1h.
 The point group associated with its full space group is C_2v.


 Subroutine INISYM returns: Found  4 space group operations
 (whereof  2 operations are pure point group operations),
 and found     1 'primitive' translations


----------------------------------------------------------------------------------------

                                     Primitive cell                                     

  volume of cell :    1292.4228

  direct lattice vectors                    reciprocal lattice vectors
    10.892683120  0.000000000  0.000000000     0.091804745  0.000000000  0.000000000
     0.000000000 10.892683120  0.000000000     0.000000000  0.091804745  0.000000000
     0.000000000  0.000000000 10.892683120     0.000000000  0.000000000  0.091804745

  length of vectors
    10.892683120 10.892683120 10.892683120     0.091804745  0.091804745  0.091804745

  position of ions in fractional coordinates (direct lattice)
     0.250918047  0.250000000  0.250000000
     0.375000000  0.375000000  0.375000000
     0.000000000  0.000000000  0.250000000
     0.125000000  0.125000000  0.375000000
     0.000000000  0.250000000  0.000000000
     0.125000000  0.375000000  0.125000000
     0.250000000  0.000000000  0.000000000
     0.375000000  0.125000000  0.125000000
     0.250000000  0.250000000  0.750000000
     0.375000000  0.375000000  0.875000000
     0.000000000  0.000000000  0.750000000
     0.125000000  0.125000000  0.875000000
     0.000000000  0.250000000  0.500000000
     0.125000000  0.375000000  0.625000000
     0.250000000  0.000000000  0.500000000
     0.375000000  0.125000000  0.625000000
     0.250000000  0.750000000  0.250000000
     0.375000000  0.875000000  0.375000000
     0.000000000  0.500000000  0.250000000
     0.125000000  0.625000000  0.375000000
     0.000000000  0.750000000  0.000000000
     0.125000000  0.875000000  0.125000000
     0.250000000  0.500000000  0.000000000
     0.375000000  0.625000000  0.125000000
     0.250000000  0.750000000  0.750000000
     0.375000000  0.875000000  0.875000000
     0.000000000  0.500000000  0.750000000
     0.125000000  0.625000000  0.875000000
     0.000000000  0.750000000  0.500000000
     0.125000000  0.875000000  0.625000000
     0.250000000  0.500000000  0.500000000
     0.375000000  0.625000000  0.625000000
     0.750000000  0.250000000  0.250000000
     0.875000000  0.375000000  0.375000000
     0.500000000  0.000000000  0.250000000
     0.625000000  0.125000000  0.375000000
     0.500000000  0.250000000  0.000000000
     0.625000000  0.375000000  0.125000000
     0.750000000  0.000000000  0.000000000
     0.875000000  0.125000000  0.125000000
     0.750000000  0.250000000  0.750000000
     0.875000000  0.375000000  0.875000000
     0.500000000  0.000000000  0.750000000
     0.625000000  0.125000000  0.875000000
     0.500000000  0.250000000  0.500000000
     0.625000000  0.375000000  0.625000000
     0.750000000  0.000000000  0.500000000
     0.875000000  0.125000000  0.625000000
     0.750000000  0.750000000  0.250000000
     0.875000000  0.875000000  0.375000000
     0.500000000  0.500000000  0.250000000
     0.625000000  0.625000000  0.375000000
     0.500000000  0.750000000  0.000000000
     0.625000000  0.875000000  0.125000000
     0.750000000  0.500000000  0.000000000
     0.875000000  0.625000000  0.125000000
     0.750000000  0.750000000  0.750000000
     0.875000000  0.875000000  0.875000000
     0.500000000  0.500000000  0.750000000
     0.625000000  0.625000000  0.875000000
     0.500000000  0.750000000  0.500000000
     0.625000000  0.875000000  0.625000000
     0.750000000  0.500000000  0.500000000
     0.875000000  0.625000000  0.625000000

  ion indices of the primitive-cell ions
   primitive index   ion index
                 1           1
                 2           2
                 3           3
                 4           4
                 5           5
                 6           6
                 7           7
                 8           8
                 9           9
                10          10
                11          11
                12          12
                13          13
                14          14
                15          15
                16          16
                17          17
                18          18
                19          19
                20          20
                21          21
                22          22
                23          23
                24          24
                25          25
                26          26
                27          27
                28          28
                29          29
                30          30
                31          31
                32          32
                33          33
                34          34
                35          35
                36          36
                37          37
                38          38
                39          39
                40          40
                41          41
                42          42
                43          43
                44          44
                45          45
                46          46
                47          47
                48          48
                49          49
                50          50
                51          51
                52          52
                53          53
                54          54
                55          55
                56          56
                57          57
                58          58
                59          59
                60          60
                61          61
                62          62
                63          63
                64          64

----------------------------------------------------------------------------------------

 
 
 KPOINTS: KPOINTS created by Atomic Simulation Env

Automatic generation of k-mesh.
 Grid dimensions read from file:
 generate k-points for:    2    2    2

 Generating k-lattice:

  Cartesian coordinates                     Fractional coordinates (reciprocal lattice)
     0.045902373  0.000000000  0.000000000     0.500000000  0.000000000  0.000000000
     0.000000000  0.045902373  0.000000000     0.000000000  0.500000000  0.000000000
     0.000000000  0.000000000  0.045902373     0.000000000  0.000000000  0.500000000

  Length of vectors
     0.045902373  0.045902373  0.045902373

  Shift w.r.t. Gamma in fractional coordinates (k-lattice)
     0.000000000  0.000000000  0.000000000

 
 Subroutine IBZKPT returns following result:
 ===========================================
 
 Found      6 irreducible k-points:
 
 Following reciprocal coordinates:
            Coordinates               Weight
  0.000000  0.000000  0.000000      1.000000
  0.500000  0.000000  0.000000      1.000000
  0.000000  0.500000  0.000000      2.000000
  0.500000  0.500000  0.000000      2.000000
  0.000000  0.500000  0.500000      1.000000
  0.500000  0.500000  0.500000      1.000000
 
 Following cartesian coordinates:
            Coordinates               Weight
  0.000000  0.000000  0.000000      1.000000
  0.045902  0.000000  0.000000      1.000000
  0.000000  0.045902  0.000000      2.000000
  0.045902  0.045902  0.000000      2.000000
  0.000000  0.045902  0.045902      1.000000
  0.045902  0.045902  0.045902      1.000000
 


--------------------------------------------------------------------------------------------------------




 Dimension of arrays:
   k-points           NKPTS =      6   k-points in BZ     NKDIM =      6   number of bands    NBANDS=    162
   number of dos      NEDOS =    301   number of ions     NIONS =     64
   non local maximal  LDIM  =      4   non local SUM 2l+1 LMDIM =      8
   total plane-waves  NPLWV = 262144
   max r-space proj   IRMAX =      1   max aug-charges    IRDMAX=  54446
   dimension x,y,z NGX =    64 NGY =   64 NGZ =   64
   dimension x,y,z NGXF=   128 NGYF=  128 NGZF=  128
   support grid    NGXF=   256 NGYF=  256 NGZF=  256
   ions per type =              64
   NGX,Y,Z   is equivalent  to a cutoff of   9.77,  9.77,  9.77 a.u.
   NGXF,Y,Z  is equivalent  to a cutoff of  19.54, 19.54, 19.54 a.u.

 SYSTEM =  unknown system                          
 POSCAR =  Si                                      

 Startparameter for this run:
   NWRITE =      2    write-flag & timer
   PREC   = accura    normal or accurate (medium, high low for compatibility)
   ISTART =      0    job   : 0-new  1-cont  2-samecut
   ICHARG =      2    charge: 1-file 2-atom 10-const
   ISPIN  =      1    spin polarized calculation?
   LNONCOLLINEAR =      F non collinear calculations
   LSORBIT =      F    spin-orbit coupling
   INIWAV =      1    electr: 0-lowe 1-rand  2-diag
   LASPH  =      F    aspherical Exc in radial PAW
 Electronic Relaxation 1
   ENCUT  =  318.0 eV  23.37 Ry    4.83 a.u.  15.84 15.84 15.84*2*pi/ulx,y,z
   ENINI  =  318.0     initial cutoff
   ENAUG  =  322.1 eV  augmentation charge cutoff
   NELM   =     60;   NELMIN=  5; NELMDL= -5     # of ELM steps 
   EDIFF  = 0.1E-07   stopping-criterion for ELM
   LREAL  =      F    real-space projection
   NLSPLINE    = F    spline interpolate recip. space projectors
   LCOMPAT=      F    compatible to vasp.4.4
   GGA_COMPAT  = T    GGA compatible to vasp.4.4-vasp.4.6
   LMAXPAW     = -100 max onsite density
   LMAXMIX     =    2 max onsite mixed and CHGCAR
   VOSKOWN=      0    Vosko Wilk Nusair interpolation
   ROPT   =    0.00000
 Ionic relaxation
   EDIFFG = 0.1E-06   stopping-criterion for IOM
   NSW    =      0    number of steps for IOM
   NBLOCK =      1;   KBLOCK =      1    inner block; outer block 
   IBRION =     -1    ionic relax: 0-MD 1-quasi-New 2-CG
   NFREE  =      0    steps in history (QN), initial steepest desc. (CG)
   ISIF   =      2    stress and relaxation
   IWAVPR =     10    prediction:  0-non 1-charg 2-wave 3-comb
   ISYM   =      2    0-nonsym 1-usesym 2-fastsym
   LCORR  =      T    Harris-Foulkes like correction to forces

   POTIM  = 0.5000    time-step for ionic-motion
   TEIN   =    0.0    initial temperature
   TEBEG  =    0.0;   TEEND  =   0.0 temperature during run
   SMASS  =  -3.00    Nose mass-parameter (am)
   estimated Nose-frequenzy (Omega)   =  0.10E-29 period in steps = 0.13E+47 mass=  -0.271E-26a.u.
   SCALEE = 1.0000    scale energy and forces
   NPACO  =    256;   APACO  = 10.0  distance and # of slots for P.C.
   PSTRESS=    0.0 pullay stress

  Mass of Ions in am
   POMASS =  28.09
  Ionic Valenz
   ZVAL   =   4.00
  Atomic Wigner-Seitz radii
   RWIGS  =  -1.00
  virtual crystal weights 
   VCA    =   1.00
   NELECT =     256.0000    total number of electrons
   NUPDOWN=      -1.0000    fix difference up-down

 DOS related values:
   EMIN   =  10.00;   EMAX   =-10.00  energy-range for DOS
   EFERMI =   0.00
   ISMEAR =     0;   SIGMA  =   0.02  broadening in eV -4-tet -1-fermi 0-gaus

 Electronic relaxation 2 (details)
   IALGO  =     38    algorithm
   LDIAG  =      T    sub-space diagonalisation (order eigenvalues)
   LSUBROT=      F    optimize rotation matrix (better conditioning)
   TURBO    =      0    0=normal 1=particle mesh
   IRESTART =      0    0=no restart 2=restart with 2 vectors
   NREBOOT  =      0    no. of reboots
   NMIN     =      0    reboot dimension
   EREF     =   0.00    reference energy to select bands
   IMIX   =      4    mixing-type and parameters
     AMIX     =   0.40;   BMIX     =  1.00
     AMIX_MAG =   1.60;   BMIX_MAG =  1.00
     AMIN     =   0.10
     WC   =   100.;   INIMIX=   1;  MIXPRE=   1;  MAXMIX= -45

 Intra band minimization:
   WEIMIN = 0.0000     energy-eigenvalue tresh-hold
   EBREAK =  0.15E-10  absolut break condition
   DEPER  =   0.30     relativ break condition  

   TIME   =   0.40     timestep for ELM

  volume/ion in A,a.u.               =      20.19       136.28
  Fermi-wavevector in a.u.,A,eV,Ry     =   0.954304  1.803373 12.390766  0.910696
  Thomas-Fermi vector in A             =   2.083038
 
 Write flags
   LWAVE        =      F    write WAVECAR
   LDOWNSAMPLE  =      F    k-point downsampling of WAVECAR
   LCHARG       =      F    write CHGCAR
   LVTOT        =      F    write LOCPOT, total local potential
   LVHAR        =      F    write LOCPOT, Hartree potential only
   LELF         =      F    write electronic localiz. function (ELF)
   LORBIT       =      0    0 simple, 1 ext, 2 COOP (PROOUT), +10 PAW based schemes


 Dipole corrections
   LMONO  =      F    monopole corrections only (constant potential shift)
   LDIPOL =      F    correct potential (dipole corrections)
   IDIPOL =      0    1-x, 2-y, 3-z, 4-all directions 
   EPSILON=  1.0000000 bulk dielectric constant

 Exchange correlation treatment:
   GGA     =    PS    GGA type
   LEXCH   =    14    internal setting for exchange type
   LIBXC   =     F    Libxc                    
   VOSKOWN =     0    Vosko Wilk Nusair interpolation
   LHFCALC =     F    Hartree Fock is set to
   LHFONE  =     F    Hartree Fock one center treatment
   AEXX    =    0.0000 exact exchange contribution

 Linear response parameters
   LEPSILON=     F    determine dielectric tensor
   LRPA    =     F    only Hartree local field effects (RPA)
   LNABLA  =     F    use nabla operator in PAW spheres
   LVEL    =     F    velocity operator in full k-point grid
   CSHIFT  =0.1000    complex shift for real part using Kramers Kronig
   OMEGAMAX=  -1.0    maximum frequency
   DEG_THRESHOLD= 0.2000000E-02 threshold for treating states as degnerate
   RTIME   =   -0.100 relaxation time in fs
  (WPLASMAI=    0.000 imaginary part of plasma frequency in eV, 0.658/RTIME)
   DFIELD  = 0.0000000 0.0000000 0.0000000 field for delta impulse in time
 
  Optional k-point grid parameters
   LKPOINTS_OPT  =     F    use optional k-point grid
   KPOINTS_OPT_MODE=     1    mode for optional k-point grid
 
 Orbital magnetization related:
   ORBITALMAG=     F  switch on orbital magnetization
   LCHIMAG   =     F  perturbation theory with respect to B field
   DQ        =  0.001000  dq finite difference perturbation B field
   LLRAUG    =     F  two centre corrections for induced B field



--------------------------------------------------------------------------------------------------------


 Static calculation
 charge density and potential will be updated during run
 non-spin polarized calculation
 Variant of blocked Davidson
 Davidson routine will perform the subspace rotation
 perform sub-space diagonalisation
    after iterative eigenvector-optimisation
 modified Broyden-mixing scheme, WC =      100.0
 initial mixing is a Kerker type mixing with AMIX =  0.4000 and BMIX =      1.0000
 Hartree-type preconditioning will be used
 using additional bands           34
 reciprocal scheme for non local part
 use partial core corrections
 calculate Harris-corrections to forces 
   (improved forces if not selfconsistent)
 use gradient corrections 
 use of overlap-Matrix (Vanderbilt PP)
 Gauss-broadening in eV      SIGMA  =   0.02


--------------------------------------------------------------------------------------------------------


  energy-cutoff  :      318.00
  volume of cell :     1292.42
      direct lattice vectors                 reciprocal lattice vectors
    10.892683120  0.000000000  0.000000000     0.091804745  0.000000000  0.000000000
     0.000000000 10.892683120  0.000000000     0.000000000  0.091804745  0.000000000
     0.000000000  0.000000000 10.892683120     0.000000000  0.000000000  0.091804745

  length of vectors
    10.892683120 10.892683120 10.892683120     0.091804745  0.091804745  0.091804745


 
 k-points in units of 2pi/SCALE and weight: KPOINTS created by Atomic Simulation Env
   0.00000000  0.00000000  0.00000000       0.125
   0.04590237  0.00000000  0.00000000       0.125
   0.00000000  0.04590237  0.00000000       0.250
   0.04590237  0.04590237  0.00000000       0.250
   0.00000000  0.04590237  0.04590237       0.125
   0.04590237  0.04590237  0.04590237       0.125
 
 k-points in reciprocal lattice and weights: KPOINTS created by Atomic Simulation Env
   0.00000000  0.00000000  0.00000000       0.125
   0.50000000  0.00000000  0.00000000       0.125
   0.00000000  0.50000000  0.00000000       0.250
   0.50000000  0.50000000  0.00000000       0.250
   0.00000000  0.50000000  0.50000000       0.125
   0.50000000  0.50000000  0.50000000       0.125
 
 position of ions in fractional coordinates (direct lattice) 
   0.25091805  0.25000000  0.25000000
   0.37500000  0.37500000  0.37500000
   0.00000000  0.00000000  0.25000000
   0.12500000  0.12500000  0.37500000
   0.00000000  0.25000000  0.00000000
   0.12500000  0.37500000  0.12500000
   0.25000000  0.00000000  0.00000000
   0.37500000  0.12500000  0.12500000
   0.25000000  0.25000000  0.75000000
   0.37500000  0.37500000  0.87500000
   0.00000000  0.00000000  0.75000000
   0.12500000  0.12500000  0.87500000
   0.00000000  0.25000000  0.50000000
   0.12500000  0.37500000  0.62500000
   0.25000000  0.00000000  0.50000000
   0.37500000  0.12500000  0.62500000
   0.25000000  0.75000000  0.25000000
   0.37500000  0.87500000  0.37500000
   0.00000000  0.50000000  0.25000000
   0.12500000  0.62500000  0.37500000
   0.00000000  0.75000000  0.00000000
   0.12500000  0.87500000  0.12500000
   0.25000000  0.50000000  0.00000000
   0.37500000  0.62500000  0.12500000
   0.25000000  0.75000000  0.75000000
   0.37500000  0.87500000  0.87500000
   0.00000000  0.50000000  0.75000000
   0.12500000  0.62500000  0.87500000
   0.00000000  0.75000000  0.50000000
   0.12500000  0.87500000  0.62500000
   0.25000000  0.50000000  0.50000000
   0.37500000  0.62500000  0.62500000
   0.75000000  0.25000000  0.25000000
   0.87500000  0.37500000  0.37500000
   0.50000000  0.00000000  0.25000000
   0.62500000  0.12500000  0.37500000
   0.50000000  0.25000000  0.00000000
   0.62500000  0.37500000  0.12500000
   0.75000000  0.00000000  0.00000000
   0.87500000  0.12500000  0.12500000
   0.75000000  0.25000000  0.75000000
   0.87500000  0.37500000  0.87500000
   0.50000000  0.00000000  0.75000000
   0.62500000  0.12500000  0.87500000
   0.50000000  0.25000000  0.50000000
   0.62500000  0.37500000  0.62500000
   0.75000000  0.00000000  0.50000000
   0.87500000  0.12500000  0.62500000
   0.75000000  0.75000000  0.25000000
   0.87500000  0.87500000  0.37500000
   0.50000000  0.50000000  0.25000000
   0.62500000  0.62500000  0.37500000
   0.50000000  0.75000000  0.00000000
   0.62500000  0.87500000  0.12500000
   0.75000000  0.50000000  0.00000000
   0.87500000  0.62500000  0.12500000
   0.75000000  0.75000000  0.75000000
   0.87500000  0.87500000  0.87500000
   0.50000000  0.50000000  0.75000000
   0.62500000  0.62500000  0.87500000
   0.50000000  0.75000000  0.50000000
   0.62500000  0.87500000  0.62500000
   0.75000000  0.50000000  0.50000000
   0.87500000  0.62500000  0.62500000
 
 position of ions in cartesian coordinates  (Angst):
   2.73317078  2.72317078  2.72317078
   4.08475617  4.08475617  4.08475617
   0.00000000  0.00000000  2.72317078
   1.36158539  1.36158539  4.08475617
   0.00000000  2.72317078  0.00000000
   1.36158539  4.08475617  1.36158539
   2.72317078  0.00000000  0.00000000
   4.08475617  1.36158539  1.36158539
   2.72317078  2.72317078  8.16951234
   4.08475617  4.08475617  9.53109773
   0.00000000  0.00000000  8.16951234
   1.36158539  1.36158539  9.53109773
   0.00000000  2.72317078  5.44634156
   1.36158539  4.08475617  6.80792695
   2.72317078  0.00000000  5.44634156
   4.08475617  1.36158539  6.80792695
   2.72317078  8.16951234  2.72317078
   4.08475617  9.53109773  4.08475617
   0.00000000  5.44634156  2.72317078
   1.36158539  6.80792695  4.08475617
   0.00000000  8.16951234  0.00000000
   1.36158539  9.53109773  1.36158539
   2.72317078  5.44634156  0.00000000
   4.08475617  6.80792695  1.36158539
   2.72317078  8.16951234  8.16951234
   4.08475617  9.53109773  9.53109773
   0.00000000  5.44634156  8.16951234
   1.36158539  6.80792695  9.53109773
   0.00000000  8.16951234  5.44634156
   1.36158539  9.53109773  6.80792695
   2.72317078  5.44634156  5.44634156
   4.08475617  6.80792695  6.80792695
   8.16951234  2.72317078  2.72317078
   9.53109773  4.08475617  4.08475617
   5.44634156  0.00000000  2.72317078
   6.80792695  1.36158539  4.08475617
   5.44634156  2.72317078  0.00000000
   6.80792695  4.08475617  1.36158539
   8.16951234  0.00000000  0.00000000
   9.53109773  1.36158539  1.36158539
   8.16951234  2.72317078  8.16951234
   9.53109773  4.08475617  9.53109773
   5.44634156  0.00000000  8.16951234
   6.80792695  1.36158539  9.53109773
   5.44634156  2.72317078  5.44634156
   6.80792695  4.08475617  6.80792695
   8.16951234  0.00000000  5.44634156
   9.53109773  1.36158539  6.80792695
   8.16951234  8.16951234  2.72317078
   9.53109773  9.53109773  4.08475617
   5.44634156  5.44634156  2.72317078
   6.80792695  6.80792695  4.08475617
   5.44634156  8.16951234  0.00000000
   6.80792695  9.53109773  1.36158539
   8.16951234  5.44634156  0.00000000
   9.53109773  6.80792695  1.36158539
   8.16951234  8.16951234  8.16951234
   9.53109773  9.53109773  9.53109773
   5.44634156  5.44634156  8.16951234
   6.80792695  6.80792695  9.53109773
   5.44634156  8.16951234  5.44634156
   6.80792695  9.53109773  6.80792695
   8.16951234  5.44634156  5.44634156
   9.53109773  6.80792695  6.80792695
 


--------------------------------------------------------------------------------------------------------


 k-point   1 :   0.0000 0.0000 0.0000  plane waves:   16663
 k-point   2 :   0.5000 0.0000 0.0000  plane waves:   16648
 k-point   3 :   0.0000 0.5000 0.0000  plane waves:   16648
 k-point   4 :   0.5000 0.5000 0.0000  plane waves:   16652
 k-point   5 :   0.0000 0.5000 0.5000  plane waves:   16652
 k-point   6 :   0.5000 0.5000 0.5000  plane waves:   16656

 maximum and minimum number of plane-waves per node :     16663    16648

 maximum number of plane-waves:     16663
 maximum index in each direction: 
   IXMAX=   15   IYMAX=   15   IZMAX=   15
   IXMIN=  -16   IYMIN=  -16   IZMIN=  -16


 serial   3D FFT for wavefunctions
 parallel 3D FFT for charge:
    minimum data exchange during FFTs selected (reduces bandwidth)


 total amount of memory used by VASP MPI-rank0   403626. kBytes
=======================================================================

   base      :      30000. kBytes
   nonl-proj :      23462. kBytes
   fftplans  :     155001. kBytes
   grid      :      61407. kBytes
   one-center:        196. kBytes
   wavefun   :     133560. kBytes
 
     INWAV:  cpu time      0.0000: real time      0.0000
 Broyden mixing: mesh for mixing (old mesh)
   NGX = 31   NGY = 31   NGZ = 31
  (NGX  =128   NGY  =128   NGZ  =128)
  gives a total of  29791 points

 initial charge density was supplied:
 charge density of overlapping atoms calculated
 number of electron     256.0000000 magnetization 
 keeping initial charge density in first step


--------------------------------------------------------------------------------------------------------


 Maximum index for augmentation-charges        26323 (set IRDMAX)


--------------------------------------------------------------------------------------------------------


 First call to EWALD:  gamma=   0.163
 Maximum number of real-space cells 3x 3x 3
 Maximum number of reciprocal cells 3x 3x 3

    FEWALD:  cpu time      0.0050: real time      0.0050


--------------------------------------- Iteration      1(   1)  ---------------------------------------


    POTLOK:  cpu time      0.3040: real time      0.3041
    SETDIJ:  cpu time      0.2222: real time      0.2221
     EDDAV:  cpu time     28.4557: real time     28.4562
       DOS:  cpu time      0.0008: real time      0.0008
    --------------------------------------------
      LOOP:  cpu time     28.9826: real time     28.9831

 eigenvalue-minimisations  :  1944
 total energy-change (2. order) : 0.4684574E+03  (-0.7296322E+04)
 number of electron     256.0000000 magnetization 
 augmentation part      256.0000000 magnetization 

 Free energy of the ion-electron system (eV)
  ---------------------------------------------------
  alpha Z        PSCENC =       106.68659228
  Ewald energy   TEWEN  =     -7292.08615189
  -Hartree energ DENC   =      -356.37859736
  -exchange      EXHF   =         0.00000000
  -V(xc)+E(xc)   XCENC  =      -559.61005462
  PAW double counting   =      5598.62625415    -4492.17844134
  entropy T*S    EENTRO =        -0.00670087
  eigenvalues    EBANDS =       898.63750650
  atomic energy  EATOM  =      6564.76702419
  Solvation  Ediel_sol  =         0.00000000
  ---------------------------------------------------
  free energy    TOTEN  =       468.45743105 eV

  energy without entropy =      468.46413192  energy(sigma->0) =      468.46078149


--------------------------------------------------------------------------------------------------------




--------------------------------------- Iteration      1(   2)  ---------------------------------------


     EDDAV:  cpu time     33.3386: real time     33.3407
       DOS:  cpu time      0.0003: real time      0.0003
    --------------------------------------------
      LOOP:  cpu time     33.3389: real time     33.3410

 eigenvalue-minimisations  :  2356
 total energy-change (2. order) :-0.7893537E+03  (-0.7512813E+03)
 number of electron     256.0000000 magnetization 
 augmentation part      256.0000000 magnetization 

 Free energy of the ion-electron system (eV)
  ---------------------------------------------------
  alpha Z        PSCENC =       106.68659228
  Ewald energy   TEWEN  =     -7292.08615189
  -Hartree energ DENC   =      -356.37859736
  -exchange      EXHF   =         0.00000000
  -V(xc)+E(xc)   XCENC  =      -559.61005462
  PAW double counting   =      5598.62625415    -4492.17844134
  entropy T*S    EENTRO =        -0.00000000
  eigenvalues    EBANDS =       109.27710731
  atomic energy  EATOM  =      6564.76702419
  Solvation  Ediel_sol  =         0.00000000
  ---------------------------------------------------
  free energy    TOTEN  =      -320.89626728 eV

  energy without entropy =     -320.89626728  energy(sigma->0) =     -320.89626728


--------------------------------------------------------------------------------------------------------




--------------------------------------- Iteration      1(   3)  ---------------------------------------


     EDDAV:  cpu time     33.5205: real time     33.5228
       DOS:  cpu time      0.0003: real time      0.0003
    --------------------------------------------
      LOOP:  cpu time     33.5208: real time     33.5231

 eigenvalue-minimisations  :  2360
 total energy-change (2. order) :-0.5231644E+02  (-0.5147818E+02)
 number of electron     256.0000000 magnetization 
 augmentation part      256.0000000 magnetization 

 Free energy of the ion-electron system (eV)
  ---------------------------------------------------
  alpha Z        PSCENC =       106.68659228
  Ewald energy   TEWEN  =     -7292.08615189
  -Hartree energ DENC   =      -356.37859736
  -exchange      EXHF   =         0.00000000
  -V(xc)+E(xc)   XCENC  =      -559.61005462
  PAW double counting   =      5598.62625415    -4492.17844134
  entropy T*S    EENTRO =        -0.00000000
  eigenvalues    EBANDS =        56.96066417
  atomic energy  EATOM  =      6564.76702419
  Solvation  Ediel_sol  =         0.00000000
  ---------------------------------------------------
  free energy    TOTEN  =      -373.21271042 eV

  energy without entropy =     -373.21271042  energy(sigma->0) =     -373.21271042


--------------------------------------------------------------------------------------------------------




--------------------------------------- Iteration      1(   4)  ---------------------------------------


     EDDAV:  cpu time     33.1593: real time     33.1615
       DOS:  cpu time      0.0003: real time      0.0003
    --------------------------------------------
      LOOP:  cpu time     33.1596: real time     33.1619

 eigenvalue-minimisations  :  2336
 total energy-change (2. order) :-0.1252600E+01  (-0.1243114E+01)
 number of electron     256.0000000 magnetization 
 augmentation part      256.0000000 magnetization 

 Free energy of the ion-electron system (eV)
  ---------------------------------------------------
  alpha Z        PSCENC =       106.68659228
  Ewald energy   TEWEN  =     -7292.08615189
  -Hartree energ DENC   =      -356.37859736
  -exchange      EXHF   =         0.00000000
  -V(xc)+E(xc)   XCENC  =      -559.61005462
  PAW double counting   =      5598.62625415    -4492.17844134
  entropy T*S    EENTRO =        -0.00000000
  eigenvalues    EBANDS =        55.70806463
  atomic energy  EATOM  =      6564.76702419
  Solvation  Ediel_sol  =         0.00000000
  ---------------------------------------------------
  free energy    TOTEN  =      -374.46530995 eV

  energy without entropy =     -374.46530995  energy(sigma->0) =     -374.46530995


--------------------------------------------------------------------------------------------------------




--------------------------------------- Iteration      1(   5)  ---------------------------------------


     EDDAV:  cpu time     33.1480: real time     33.1501
       DOS:  cpu time      0.0003: real time      0.0003
    CHARGE:  cpu time      0.7610: real time      0.7610
    MIXING:  cpu time      0.0094: real time      0.0094
    --------------------------------------------
      LOOP:  cpu time     33.9188: real time     33.9207

 eigenvalue-minimisations  :  2336
 total energy-change (2. order) :-0.4085424E-01  (-0.4078830E-01)
 number of electron     255.9999995 magnetization 
 augmentation part      -14.9465869 magnetization 

 Broyden mixing:
  rms(total) = 0.28232E+01    rms(broyden)= 0.28231E+01
  rms(prec ) = 0.31068E+01
  weight for this iteration     100.00

 Free energy of the ion-electron system (eV)
  ---------------------------------------------------
  alpha Z        PSCENC =       106.68659228
  Ewald energy   TEWEN  =     -7292.08615189
  -Hartree energ DENC   =      -356.37859736
  -exchange      EXHF   =         0.00000000
  -V(xc)+E(xc)   XCENC  =      -559.61005462
  PAW double counting   =      5598.62625415    -4492.17844134
  entropy T*S    EENTRO =        -0.00000000
  eigenvalues    EBANDS =        55.66721039
  atomic energy  EATOM  =      6564.76702419
  Solvation  Ediel_sol  =         0.00000000
  ---------------------------------------------------
  free energy    TOTEN  =      -374.50616419 eV

  energy without entropy =     -374.50616419  energy(sigma->0) =     -374.50616419


--------------------------------------------------------------------------------------------------------




--------------------------------------- Iteration      1(   6)  ---------------------------------------


    POTLOK:  cpu time      0.2926: real time      0.2933
    SETDIJ:  cpu time      0.2202: real time      0.2202
