<?xml version="1.0" encoding="ISO-8859-1"?>
<modeling>
 <generator>
  <i name="program" type="string">vasp </i>
  <i name="version" type="string">6.3.0  </i>
  <i name="subversion" type="string">20Jan22 (build Aug 13 2022 13:28:16) complex                          parallel </i>
  <i name="platform" type="string">LinuxIFC </i>
  <i name="date" type="string">2022 09 07 </i>
  <i name="time" type="string">11:51:43 </i>
 </generator>
 <incar>
  <i type="string" name="PREC">Accurate</i>
  <i type="int" name="IALGO">    38</i>
  <i type="logical" name="ADDGRID"> T  </i>
  <i type="int" name="NELMIN">     5</i>
  <i type="int" name="IBRION">    -1</i>
  <i name="EDIFF">      0.00000001</i>
  <i name="ENCUT">    318.00000000</i>
  <i type="logical" name="LREAL"> F  </i>
  <i type="int" name="ISMEAR">     0</i>
  <i name="SIGMA">      0.02000000</i>
  <i type="logical" name="LWAVE"> F  </i>
  <i type="logical" name="LCHARG"> F  </i>
  <i type="string" name="GGA">Ps</i>
 </incar>
 <primitive_cell>
  <structure name="primitive_cell" >
   <crystal>
    <varray name="basis" >
     <v>      10.89268312       0.00000000       0.00000000 </v>
     <v>       0.00000000      10.89268312       0.00000000 </v>
     <v>       0.00000000       0.00000000      10.89268312 </v>
    </varray>
    <i name="volume">   1292.42279472 </i>
    <varray name="rec_basis" >
     <v>       0.09180475       0.00000000       0.00000000 </v>
     <v>       0.00000000       0.09180475       0.00000000 </v>
     <v>       0.00000000       0.00000000       0.09180475 </v>
    </varray>
   </crystal>
   <varray name="positions" >
    <v>       0.25091805       0.25000000       0.25000000 </v>
    <v>       0.37500000       0.37500000       0.37500000 </v>
    <v>       0.00000000       0.00000000       0.25000000 </v>
    <v>       0.12500000       0.12500000       0.37500000 </v>
    <v>       0.00000000       0.25000000       0.00000000 </v>
    <v>       0.12500000       0.37500000       0.12500000 </v>
    <v>       0.25000000       0.00000000       0.00000000 </v>
    <v>       0.37500000       0.12500000       0.12500000 </v>
    <v>       0.25000000       0.25000000       0.75000000 </v>
    <v>       0.37500000       0.37500000       0.87500000 </v>
    <v>       0.00000000       0.00000000       0.75000000 </v>
    <v>       0.12500000       0.12500000       0.87500000 </v>
    <v>       0.00000000       0.25000000       0.50000000 </v>
    <v>       0.12500000       0.37500000       0.62500000 </v>
    <v>       0.25000000       0.00000000       0.50000000 </v>
    <v>       0.37500000       0.12500000       0.62500000 </v>
    <v>       0.25000000       0.75000000       0.25000000 </v>
    <v>       0.37500000       0.87500000       0.37500000 </v>
    <v>       0.00000000       0.50000000       0.25000000 </v>
    <v>       0.12500000       0.62500000       0.37500000 </v>
    <v>       0.00000000       0.75000000       0.00000000 </v>
    <v>       0.12500000       0.87500000       0.12500000 </v>
    <v>       0.25000000       0.50000000       0.00000000 </v>
    <v>       0.37500000       0.62500000       0.12500000 </v>
    <v>       0.25000000       0.75000000       0.75000000 </v>
    <v>       0.37500000       0.87500000       0.87500000 </v>
    <v>       0.00000000       0.50000000       0.75000000 </v>
    <v>       0.12500000       0.62500000       0.87500000 </v>
    <v>       0.00000000       0.75000000       0.50000000 </v>
    <v>       0.12500000       0.87500000       0.62500000 </v>
    <v>       0.25000000       0.50000000       0.50000000 </v>
    <v>       0.37500000       0.62500000       0.62500000 </v>
    <v>       0.75000000       0.25000000       0.25000000 </v>
    <v>       0.87500000       0.37500000       0.37500000 </v>
    <v>       0.50000000       0.00000000       0.25000000 </v>
    <v>       0.62500000       0.12500000       0.37500000 </v>
    <v>       0.50000000       0.25000000       0.00000000 </v>
    <v>       0.62500000       0.37500000       0.12500000 </v>
    <v>       0.75000000       0.00000000       0.00000000 </v>
    <v>       0.87500000       0.12500000       0.12500000 </v>
    <v>       0.75000000       0.25000000       0.75000000 </v>
    <v>       0.87500000       0.37500000       0.87500000 </v>
    <v>       0.50000000       0.00000000       0.75000000 </v>
    <v>       0.62500000       0.12500000       0.87500000 </v>
    <v>       0.50000000       0.25000000       0.50000000 </v>
    <v>       0.62500000       0.37500000       0.62500000 </v>
    <v>       0.75000000       0.00000000       0.50000000 </v>
    <v>       0.87500000       0.12500000       0.62500000 </v>
    <v>       0.75000000       0.75000000       0.25000000 </v>
    <v>       0.87500000       0.87500000       0.37500000 </v>
    <v>       0.50000000       0.50000000       0.25000000 </v>
    <v>       0.62500000       0.62500000       0.37500000 </v>
    <v>       0.50000000       0.75000000       0.00000000 </v>
    <v>       0.62500000       0.87500000       0.12500000 </v>
    <v>       0.75000000       0.50000000       0.00000000 </v>
    <v>       0.87500000       0.62500000       0.12500000 </v>
    <v>       0.75000000       0.75000000       0.75000000 </v>
    <v>       0.87500000       0.87500000       0.87500000 </v>
    <v>       0.50000000       0.50000000       0.75000000 </v>
    <v>       0.62500000       0.62500000       0.87500000 </v>
    <v>       0.50000000       0.75000000       0.50000000 </v>
    <v>       0.62500000       0.87500000       0.62500000 </v>
    <v>       0.75000000       0.50000000       0.50000000 </v>
    <v>       0.87500000       0.62500000       0.62500000 </v>
   </varray>
  </structure>
  <varray name="primitive_index" >
   <v type="int" >        1 </v>
   <v type="int" >        2 </v>
   <v type="int" >        3 </v>
   <v type="int" >        4 </v>
   <v type="int" >        5 </v>
   <v type="int" >        6 </v>
   <v type="int" >        7 </v>
   <v type="int" >        8 </v>
   <v type="int" >        9 </v>
   <v type="int" >       10 </v>
   <v type="int" >       11 </v>
   <v type="int" >       12 </v>
   <v type="int" >       13 </v>
   <v type="int" >       14 </v>
   <v type="int" >       15 </v>
   <v type="int" >       16 </v>
   <v type="int" >       17 </v>
   <v type="int" >       18 </v>
   <v type="int" >       19 </v>
   <v type="int" >       20 </v>
   <v type="int" >       21 </v>
   <v type="int" >       22 </v>
   <v type="int" >       23 </v>
   <v type="int" >       24 </v>
   <v type="int" >       25 </v>
   <v type="int" >       26 </v>
   <v type="int" >       27 </v>
   <v type="int" >       28 </v>
   <v type="int" >       29 </v>
   <v type="int" >       30 </v>
   <v type="int" >       31 </v>
   <v type="int" >       32 </v>
   <v type="int" >       33 </v>
   <v type="int" >       34 </v>
   <v type="int" >       35 </v>
   <v type="int" >       36 </v>
   <v type="int" >       37 </v>
   <v type="int" >       38 </v>
   <v type="int" >       39 </v>
   <v type="int" >       40 </v>
   <v type="int" >       41 </v>
   <v type="int" >       42 </v>
   <v type="int" >       43 </v>
   <v type="int" >       44 </v>
   <v type="int" >       45 </v>
   <v type="int" >       46 </v>
   <v type="int" >       47 </v>
   <v type="int" >       48 </v>
   <v type="int" >       49 </v>
   <v type="int" >       50 </v>
   <v type="int" >       51 </v>
   <v type="int" >       52 </v>
   <v type="int" >       53 </v>
   <v type="int" >       54 </v>
   <v type="int" >       55 </v>
   <v type="int" >       56 </v>
   <v type="int" >       57 </v>
   <v type="int" >       58 </v>
   <v type="int" >       59 </v>
   <v type="int" >       60 </v>
   <v type="int" >       61 </v>
   <v type="int" >       62 </v>
   <v type="int" >       63 </v>
   <v type="int" >       64 </v>
  </varray>
 </primitive_cell>
 <kpoints>
  <generation param="Gamma">
   <v type="int" name="divisions">       2        2        2 </v>
   <v name="usershift">      0.00000000       0.00000000       0.00000000 </v>
   <v name="genvec1">      0.50000000       0.00000000       0.00000000 </v>
   <v name="genvec2">      0.00000000       0.50000000       0.00000000 </v>
   <v name="genvec3">      0.00000000       0.00000000       0.50000000 </v>
   <v name="shift">      0.00000000       0.00000000       0.00000000 </v>
  </generation>
  <varray name="kpointlist" >
   <v>       0.00000000       0.00000000       0.00000000 </v>
   <v>       0.50000000       0.00000000       0.00000000 </v>
   <v>       0.00000000       0.50000000       0.00000000 </v>
   <v>       0.50000000       0.50000000       0.00000000 </v>
   <v>       0.00000000       0.50000000       0.50000000 </v>
   <v>       0.50000000       0.50000000       0.50000000 </v>
  </varray>
  <varray name="weights" >
   <v>       0.12500000 </v>
   <v>       0.12500000 </v>
   <v>       0.25000000 </v>
   <v>       0.25000000 </v>
   <v>       0.12500000 </v>
   <v>       0.12500000 </v>
  </varray>
 </kpoints>
 <parameters>
  <separator name="general" >
   <i type="string" name="SYSTEM">unknown system</i>
   <i type="logical" name="LCOMPAT"> F  </i>
  </separator>
  <separator name="electronic" >
   <i type="string" name="PREC">accura</i>
   <i name="ENMAX">    318.00000000</i>
   <i name="ENAUG">    322.06900000</i>
   <i name="EDIFF">      0.00000001</i>
   <i type="int" name="IALGO">    38</i>
   <i type="int" name="IWAVPR">    10</i>
   <i type="int" name="NBANDS">   162</i>
   <i type="int" name="NBANDSLOW">    -1</i>
   <i type="int" name="NBANDSHIGH">    -1</i>
   <i name="NELECT">    256.00000000</i>
   <i type="int" name="TURBO">     0</i>
   <i type="int" name="IRESTART">     0</i>
   <i type="int" name="NREBOOT">     0</i>
   <i type="int" name="NMIN">     0</i>
   <i name="EREF">      0.00000000</i>
   <separator name="electronic smearing" >
    <i type="int" name="ISMEAR">     0</i>
    <i name="SIGMA">      0.02000000</i>
    <i name="KSPACING">      0.50000000</i>
    <i type="logical" name="KGAMMA"> T  </i>
    <i type="logical" name="KBLOWUP"> T  </i>
   </separator>
   <separator name="electronic projectors" >
    <i type="logical" name="LREAL"> F  </i>
    <v name="ROPT">      0.00000000</v>
    <i type="int" name="LMAXPAW">  -100</i>
    <i type="int" name="LMAXMIX">     2</i>
    <i type="logical" name="NLSPLINE"> F  </i>
   </separator>
   <separator name="electronic startup" >
    <i type="int" name="ISTART">     0</i>
    <i type="int" name="ICHARG">     2</i>
    <i type="int" name="INIWAV">     1</i>
   </separator>
   <separator name="electronic spin" >
    <i type="int" name="ISPIN">     1</i>
    <i type="logical" name="LNONCOLLINEAR"> F  </i>
    <v name="MAGMOM">      1.00000000      1.00000000      1.00000000      1.00000000      1.00000000      1.00000000      1.00000000      1.00000000      1.00000000      1.00000000      1.00000000      1.00000000      1.00000000      1.00000000      1.00000000      1.00000000      1.00000000      1.00000000      1.00000000      1.00000000
      1.00000000      1.00000000      1.00000000      1.00000000      1.00000000      1.00000000      1.00000000      1.00000000      1.00000000      1.00000000      1.00000000      1.00000000      1.00000000      1.00000000      1.00000000      1.00000000      1.00000000      1.00000000      1.00000000      1.00000000
      1.00000000      1.00000000      1.00000000      1.00000000      1.00000000      1.00000000      1.00000000      1.00000000      1.00000000      1.00000000      1.00000000      1.00000000      1.00000000      1.00000000      1.00000000      1.00000000      1.00000000      1.00000000      1.00000000      1.00000000
      1.00000000      1.00000000      1.00000000      1.00000000</v>
    <i name="NUPDOWN">     -1.00000000</i>
    <i type="logical" name="LSORBIT"> F  </i>
    <v name="SAXIS">      0.00000000      0.00000000      1.00000000</v>
    <i type="logical" name="LSPIRAL"> F  </i>
    <v name="QSPIRAL">      0.00000000      0.00000000      0.00000000</v>
    <i type="logical" name="LZEROZ"> F  </i>
   </separator>
   <separator name="electronic exchange-correlation" >
    <i type="logical" name="LASPH"> F  </i>
    <i type="logical" name="LMETAGGA"> F  </i>
   </separator>
   <separator name="electronic convergence" >
    <i type="int" name="NELM">    60</i>
    <i type="int" name="NELMDL">    -5</i>
    <i type="int" name="NELMIN">     5</i>
    <i name="ENINI">    318.00000000</i>
    <separator name="electronic convergence detail" >
     <i type="logical" name="LDIAG"> T  </i>
     <i type="logical" name="LSUBROT"> F  </i>
     <i name="WEIMIN">      0.00000000</i>
     <i name="EBREAK">      0.00000000</i>
     <i name="DEPER">      0.30000000</i>
     <i type="int" name="NRMM">     4</i>
     <i name="TIME">      0.40000000</i>
    </separator>
   </separator>
   <separator name="electronic mixer" >
    <i name="AMIX">      0.40000000</i>
    <i name="BMIX">      1.00000000</i>
    <i name="AMIN">      0.10000000</i>
    <i name="AMIX_MAG">      1.60000000</i>
    <i name="BMIX_MAG">      1.00000000</i>
    <separator name="electronic mixer details" >
     <i type="int" name="IMIX">     4</i>
     <i type="logical" name="MIXFIRST"> F  </i>
     <i type="int" name="MAXMIX">   -45</i>
     <i name="WC">    100.00000000</i>
     <i type="int" name="INIMIX">     1</i>
     <i type="int" name="MIXPRE">     1</i>
     <i type="int" name="MREMOVE">     5</i>
    </separator>
   </separator>
   <separator name="electronic dipolcorrection" >
    <i type="logical" name="LDIPOL"> F  </i>
    <i type="logical" name="LMONO"> F  </i>
    <i type="int" name="IDIPOL">     0</i>
    <i name="EPSILON">      1.00000000</i>
    <v name="DIPOL">   -100.00000000   -100.00000000   -100.00000000</v>
    <i name="EFIELD">      0.00000000</i>
   </separator>
  </separator>
  <separator name="grids" >
   <i type="int" name="NGX">    64</i>
   <i type="int" name="NGY">    64</i>
   <i type="int" name="NGZ">    64</i>
   <i type="int" name="NGXF">   128</i>
   <i type="int" name="NGYF">   128</i>
   <i type="int" name="NGZF">   128</i>
   <i type="logical" name="ADDGRID"> T  </i>
  </separator>
  <separator name="ionic" >
   <i type="int" name="NSW">     0</i>
   <i type="int" name="IBRION">    -1</i>
   <i type="int" name="MDALGO">     0</i>
   <i type="int" name="ISIF">     2</i>
   <i name="PSTRESS">      0.00000000</i>
   <i name="EDIFFG">      0.00000010</i>
   <i type="int" name="NFREE">     0</i>
   <i name="POTIM">      0.50000000</i>
   <i name="SMASS">     -3.00000000</i>
   <i name="SCALEE">      1.00000000</i>
  </separator>
  <separator name="ionic md" >
   <i name="TEBEG">      0.00010000</i>
   <i name="TEEND">      0.00010000</i>
   <i type="int" name="NBLOCK">     1</i>
   <i type="int" name="KBLOCK">     1</i>
   <i type="int" name="NPACO">   256</i>
   <i name="APACO">     10.00000000</i>
  </separator>
  <separator name="symmetry" >
   <i type="int" name="ISYM">     2</i>
   <i name="SYMPREC">      0.00001000</i>
  </separator>
  <separator name="dos" >
   <i type="int" name="LORBIT">     0</i>
   <v name="RWIGS">     -1.00000000</v>
   <i type="int" name="NEDOS">   301</i>
   <i name="EMIN">     10.00000000</i>
   <i name="EMAX">    -10.00000000</i>
   <i name="EFERMI">      0.00000000</i>
  </separator>
  <separator name="writing" >
   <i type="int" name="NWRITE">     2</i>
   <i type="logical" name="LWAVE"> F  </i>
   <i type="logical" name="LDOWNSAMPLE"> F  </i>
   <i type="logical" name="LCHARG"> F  </i>
   <i type="logical" name="LPARD"> F  </i>
   <i type="logical" name="LVTOT"> F  </i>
   <i type="logical" name="LVHAR"> F  </i>
   <i type="logical" name="LELF"> F  </i>
   <i type="logical" name="LOPTICS"> F  </i>
   <v name="STM">      0.00000000      0.00000000      0.00000000      0.00000000      0.00000000      0.00000000      0.00000000</v>
  </separator>
  <separator name="performance" >
   <i type="int" name="NPAR">     2</i>
   <i type="int" name="NSIM">     4</i>
   <i type="int" name="NBLK">    -1</i>
   <i type="logical" name="LPLANE"> T  </i>
   <i type="logical" name="LSCALAPACK"> T  </i>
   <i type="logical" name="LSCAAWARE"> F  </i>
   <i type="logical" name="LSCALU"> F  </i>
   <i type="logical" name="LASYNC"> F  </i>
   <i type="logical" name="LORBITALREAL"> F  </i>
  </separator>
  <separator name="miscellaneous" >
   <i type="int" name="IDIOT">     3</i>
   <i type="int" name="PHON_NSTRUCT">    -1</i>
   <i type="logical" name="LMUSIC"> F  </i>
   <v name="POMASS">     28.08500000</v>
   <v name="DARWINR">      0.00000000</v>
   <v name="DARWINV">      1.00000000</v>
   <i type="logical" name="LCORR"> T  </i>
  </separator>
  <i type="logical" name="GGA_COMPAT"> T  </i>
  <i type="logical" name="LBERRY"> F  </i>
  <i type="int" name="ICORELEVEL">     0</i>
  <i type="logical" name="LDAU"> F  </i>
  <i type="int" name="I_CONSTRAINED_M">     0</i>
  <separator name="electronic exchange-correlation" >
   <i type="string" name="GGA">PS</i>
   <i type="int" name="VOSKOWN">     0</i>
   <i type="logical" name="LHFCALC"> F  </i>
   <i type="string" name="PRECFOCK"></i>
   <i type="logical" name="LSYMGRAD"> F  </i>
   <i type="logical" name="LHFONE"> F  </i>
   <i type="logical" name="LRHFCALC"> F  </i>
   <i type="logical" name="LTHOMAS"> F  </i>
   <i type="logical" name="LMODELHF"> F  </i>
   <i type="logical" name="LFOCKACE"> F  </i>
   <i name="ENCUT4O">     -1.00000000</i>
   <i type="int" name="EXXOEP">     0</i>
   <i type="int" name="FOURORBIT">     0</i>
   <i name="AEXX">      0.00000000</i>
   <i name="HFALPHA">      0.00000000</i>
   <i name="MCALPHA">      0.00000000</i>
   <i name="ALDAX">      1.00000000</i>
   <i name="AGGAX">      1.00000000</i>
   <i name="ALDAC">      1.00000000</i>
   <i name="AGGAC">      1.00000000</i>
   <i type="int" name="NKREDX">     1</i>
   <i type="int" name="NKREDY">     1</i>
   <i type="int" name="NKREDZ">     1</i>
   <i type="logical" name="SHIFTRED"> F  </i>
   <i type="logical" name="ODDONLY"> F  </i>
   <i type="logical" name="EVENONLY"> F  </i>
   <i type="int" name="LMAXFOCK">     0</i>
   <i type="int" name="NMAXFOCKAE">     0</i>
   <i type="logical" name="LFOCKAEDFT"> F  </i>
   <i name="HFSCREEN">      0.00000000</i>
   <i name="HFSCREENC">      0.00000000</i>
   <i type="int" name="NBANDSGWLOW">     0</i>
  </separator>
  <separator name="vdW DFT" >
   <i type="logical" name="LUSE_VDW"> F  </i>
   <i name="Zab_VDW">     -0.84910000</i>
   <i name="PARAM1">      0.12340000</i>
   <i name="PARAM2">      1.00000000</i>
   <i name="PARAM3">      0.00000000</i>
  </separator>
  <separator name="model GW" >
   <i type="int" name="MODEL_GW">     0</i>
   <i name="MODEL_EPS0">     12.11646370</i>
   <i name="MODEL_ALPHA">      1.00000000</i>
  </separator>
  <separator name="linear response parameters" >
   <i type="logical" name="LEPSILON"> F  </i>
   <i type="logical" name="LRPA"> F  </i>
   <i type="logical" name="LNABLA"> F  </i>
   <i type="logical" name="LVEL"> F  </i>
   <i name="CSHIFT">      0.10000000</i>
   <i name="OMEGAMAX">     -1.00000000</i>
   <i name="DEG_THRESHOLD">      0.00200000</i>
   <i name="RTIME">     -0.10000000</i>
   <i name="WPLASMAI">      0.00000000</i>
   <v name="DFIELD">      0.00000000      0.00000000      0.00000000</v>
   <v name="WPLASMA">      0.00000000      0.00000000      0.00000000      0.00000000      0.00000000      0.00000000      0.00000000      0.00000000      0.00000000</v>
  </separator>
  <separator name="orbital magnetization" >
   <i type="logical" name="NUCIND"> F  </i>
   <v name="MAGPOS">      0.00000000      0.00000000      0.00000000</v>
   <i type="logical" name="LNICSALL"> T  </i>
   <i type="logical" name="ORBITALMAG"> F  </i>
   <i type="logical" name="LMAGBLOCH"> F  </i>
   <i type="logical" name="LCHIMAG"> F  </i>
   <i type="logical" name="LGAUGE"> T  </i>
   <i type="int" name="MAGATOM">     0</i>
   <v name="MAGDIPOL">      0.00000000      0.00000000      0.00000000</v>
   <v name="AVECCONST">      0.00000000      0.00000000      0.00000000</v>
  </separator>
  <separator name="response functions" >
   <i type="logical" name="LFINITE_TEMPERATURE"> F  </i>
   <i type="logical" name="LADDER"> F  </i>
   <i type="logical" name="LRPAFORCE"> F  </i>
   <i type="logical" name="LFXC"> F  </i>
   <i type="logical" name="LHARTREE"> T  </i>
   <i type="int" name="IBSE">     0</i>
   <v type="int" name="KPOINT">    -1     0     0     0</v>
   <i type="logical" name="LTCTC"> F  </i>
   <i type="logical" name="LTCTE"> F  </i>
   <i type="logical" name="LTETE"> F  </i>
   <i type="logical" name="LTRIPLET"> F  </i>
   <i type="logical" name="LFXCEPS"> F  </i>
   <i type="logical" name="LFXHEG"> F  </i>
   <i type="int" name="NATURALO">     2</i>
   <i type="logical" name="LHOLEGF"> F  </i>
   <i type="logical" name="L2ORDER"> F  </i>
   <i type="logical" name="LDMP1"> F  </i>
   <i type="logical" name="LMP2LT"> F  </i>
   <i type="logical" name="LSMP2LT"> F  </i>
   <i type="logical" name="LGWLF"> F  </i>
   <i name="ENCUTGW">     -2.00000000</i>
   <i name="ENCUTGWSOFT">     -2.00000000</i>
   <i name="ENCUTLF">     -1.00000000</i>
   <i type="logical" name="LESF_SPLINES"> F  </i>
   <i type="int" name="LMAXMP2">    -1</i>
   <i name="SCISSOR">      0.00000000</i>
   <i type="int" name="NOMEGA">     0</i>
   <i type="int" name="NOMEGAR">     0</i>
   <i type="int" name="NBANDSGW">    -1</i>
   <i type="int" name="NBANDSO">    -1</i>
   <i type="int" name="NBANDSV">    -1</i>
   <i type="int" name="NELMGW">     1</i>
   <i type="int" name="NELMHF">     1</i>
   <i type="int" name="DIM">     3</i>
   <i type="int" name="IESPILON">     4</i>
   <i type="int" name="ANTIRES">     0</i>
   <i name="OMEGAMAX">    -30.00000000</i>
   <i name="OMEGAMIN">    -30.00000000</i>
   <i name="OMEGATL">   -200.00000000</i>
   <i type="int" name="OMEGAGRID">     0</i>
   <i name="CSHIFT">     -0.10000000</i>
   <i type="logical" name="LSELFENERGY"> F  </i>
   <i type="logical" name="LSPECTRAL"> F  </i>
   <i type="logical" name="LSPECTRALGW"> F  </i>
   <i type="logical" name="LSINGLES"> F  </i>
   <i type="logical" name="LFERMIGW"> F  </i>
   <i type="logical" name="ODDONLYGW"> F  </i>
   <i type="logical" name="EVENONLYGW"> F  </i>
   <i type="int" name="NKREDLFX">     1</i>
   <i type="int" name="NKREDLFY">     1</i>
   <i type="int" name="NKREDLFZ">     1</i>
   <i type="int" name="MAXMEM">  2800</i>
   <i type="int" name="TELESCOPE">     0</i>
   <i type="int" name="NTAUPAR">    -1</i>
   <i type="int" name="NOMEGAPAR">    -1</i>
   <i name="DAMP_NEWTON">      0.80000001</i>
   <i name="LAMBDA">      1.00000000</i>
  </separator>
  <separator name="External order field" >
   <i name="OFIELD_KAPPA">      0.00000000</i>
   <v name="OFIELD_K">      0.00000000      0.00000000      0.00000000</v>
   <i name="OFIELD_Q6_NEAR">      0.00000000</i>
   <i name="OFIELD_Q6_FAR">      0.00000000</i>
   <i name="OFIELD_A">      0.00000000</i>
  </separator>
  <separator name="optional k-points parameters" >
   <i type="int" name="KPOINTS_OPT_MODE">     1</i>
   <i type="logical" name="LKPOINTS_OPT"> F  </i>
  </separator>
 </parameters>
 <atominfo>
  <atoms>      64 </atoms>
  <types>       1 </types>
  <array name="atoms" >
   <dimension dim="1">ion</dimension>
   <field type="string">element</field>
   <field type="int">atomtype</field>
   <set>
    <rc><c>Si</c><c>   1</c></rc>
    <rc><c>Si</c><c>   1</c></rc>
    <rc><c>Si</c><c>   1</c></rc>
    <rc><c>Si</c><c>   1</c></rc>
    <rc><c>Si</c><c>   1</c></rc>
    <rc><c>Si</c><c>   1</c></rc>
    <rc><c>Si</c><c>   1</c></rc>
    <rc><c>Si</c><c>   1</c></rc>
    <rc><c>Si</c><c>   1</c></rc>
    <rc><c>Si</c><c>   1</c></rc>
    <rc><c>Si</c><c>   1</c></rc>
    <rc><c>Si</c><c>   1</c></rc>
    <rc><c>Si</c><c>   1</c></rc>
    <rc><c>Si</c><c>   1</c></rc>
    <rc><c>Si</c><c>   1</c></rc>
    <rc><c>Si</c><c>   1</c></rc>
    <rc><c>Si</c><c>   1</c></rc>
    <rc><c>Si</c><c>   1</c></rc>
    <rc><c>Si</c><c>   1</c></rc>
    <rc><c>Si</c><c>   1</c></rc>
    <rc><c>Si</c><c>   1</c></rc>
    <rc><c>Si</c><c>   1</c></rc>
    <rc><c>Si</c><c>   1</c></rc>
    <rc><c>Si</c><c>   1</c></rc>
    <rc><c>Si</c><c>   1</c></rc>
    <rc><c>Si</c><c>   1</c></rc>
    <rc><c>Si</c><c>   1</c></rc>
    <rc><c>Si</c><c>   1</c></rc>
    <rc><c>Si</c><c>   1</c></rc>
    <rc><c>Si</c><c>   1</c></rc>
    <rc><c>Si</c><c>   1</c></rc>
    <rc><c>Si</c><c>   1</c></rc>
    <rc><c>Si</c><c>   1</c></rc>
    <rc><c>Si</c><c>   1</c></rc>
    <rc><c>Si</c><c>   1</c></rc>
    <rc><c>Si</c><c>   1</c></rc>
    <rc><c>Si</c><c>   1</c></rc>
    <rc><c>Si</c><c>   1</c></rc>
    <rc><c>Si</c><c>   1</c></rc>
    <rc><c>Si</c><c>   1</c></rc>
    <rc><c>Si</c><c>   1</c></rc>
    <rc><c>Si</c><c>   1</c></rc>
    <rc><c>Si</c><c>   1</c></rc>
    <rc><c>Si</c><c>   1</c></rc>
    <rc><c>Si</c><c>   1</c></rc>
    <rc><c>Si</c><c>   1</c></rc>
    <rc><c>Si</c><c>   1</c></rc>
    <rc><c>Si</c><c>   1</c></rc>
    <rc><c>Si</c><c>   1</c></rc>
    <rc><c>Si</c><c>   1</c></rc>
    <rc><c>Si</c><c>   1</c></rc>
    <rc><c>Si</c><c>   1</c></rc>
    <rc><c>Si</c><c>   1</c></rc>
    <rc><c>Si</c><c>   1</c></rc>
    <rc><c>Si</c><c>   1</c></rc>
    <rc><c>Si</c><c>   1</c></rc>
    <rc><c>Si</c><c>   1</c></rc>
    <rc><c>Si</c><c>   1</c></rc>
    <rc><c>Si</c><c>   1</c></rc>
    <rc><c>Si</c><c>   1</c></rc>
    <rc><c>Si</c><c>   1</c></rc>
    <rc><c>Si</c><c>   1</c></rc>
    <rc><c>Si</c><c>   1</c></rc>
    <rc><c>Si</c><c>   1</c></rc>
   </set>
  </array>
  <array name="atomtypes" >
   <dimension dim="1">type</dimension>
   <field type="int">atomspertype</field>
   <field type="string">element</field>
   <field>mass</field>
   <field>valence</field>
   <field type="string">pseudopotential</field>
   <set>
    <rc><c>  64</c><c>Si</c><c>     28.08500000</c><c>      4.00000000</c><c>  PAW_PBE Si 05Jan2001                  </c></rc>
   </set>
  </array>
 </atominfo>
 <structure name="initialpos" >
  <crystal>
   <varray name="basis" >
    <v>      10.89268312       0.00000000       0.00000000 </v>
    <v>       0.00000000      10.89268312       0.00000000 </v>
    <v>       0.00000000       0.00000000      10.89268312 </v>
   </varray>
   <i name="volume">   1292.42279472 </i>
   <varray name="rec_basis" >
    <v>       0.09180475       0.00000000       0.00000000 </v>
    <v>       0.00000000       0.09180475       0.00000000 </v>
    <v>       0.00000000       0.00000000       0.09180475 </v>
   </varray>
  </crystal>
  <varray name="positions" >
   <v>       0.25091805       0.25000000       0.25000000 </v>
   <v>       0.37500000       0.37500000       0.37500000 </v>
   <v>       0.00000000       0.00000000       0.25000000 </v>
   <v>       0.12500000       0.12500000       0.37500000 </v>
   <v>       0.00000000       0.25000000       0.00000000 </v>
   <v>       0.12500000       0.37500000       0.12500000 </v>
   <v>       0.25000000       0.00000000       0.00000000 </v>
   <v>       0.37500000       0.12500000       0.12500000 </v>
   <v>       0.25000000       0.25000000       0.75000000 </v>
   <v>       0.37500000       0.37500000       0.87500000 </v>
   <v>       0.00000000       0.00000000       0.75000000 </v>
   <v>       0.12500000       0.12500000       0.87500000 </v>
   <v>       0.00000000       0.25000000       0.50000000 </v>
   <v>       0.12500000       0.37500000       0.62500000 </v>
   <v>       0.25000000       0.00000000       0.50000000 </v>
   <v>       0.37500000       0.12500000       0.62500000 </v>
   <v>       0.25000000       0.75000000       0.25000000 </v>
   <v>       0.37500000       0.87500000       0.37500000 </v>
   <v>       0.00000000       0.50000000       0.25000000 </v>
   <v>       0.12500000       0.62500000       0.37500000 </v>
   <v>       0.00000000       0.75000000       0.00000000 </v>
   <v>       0.12500000       0.87500000       0.12500000 </v>
   <v>       0.25000000       0.50000000       0.00000000 </v>
   <v>       0.37500000       0.62500000       0.12500000 </v>
   <v>       0.25000000       0.75000000       0.75000000 </v>
   <v>       0.37500000       0.87500000       0.87500000 </v>
   <v>       0.00000000       0.50000000       0.75000000 </v>
   <v>       0.12500000       0.62500000       0.87500000 </v>
   <v>       0.00000000       0.75000000       0.50000000 </v>
   <v>       0.12500000       0.87500000       0.62500000 </v>
   <v>       0.25000000       0.50000000       0.50000000 </v>
   <v>       0.37500000       0.62500000       0.62500000 </v>
   <v>       0.75000000       0.25000000       0.25000000 </v>
   <v>       0.87500000       0.37500000       0.37500000 </v>
   <v>       0.50000000       0.00000000       0.25000000 </v>
   <v>       0.62500000       0.12500000       0.37500000 </v>
   <v>       0.50000000       0.25000000       0.00000000 </v>
   <v>       0.62500000       0.37500000       0.12500000 </v>
   <v>       0.75000000       0.00000000       0.00000000 </v>
   <v>       0.87500000       0.12500000       0.12500000 </v>
   <v>       0.75000000       0.25000000       0.75000000 </v>
   <v>       0.87500000       0.37500000       0.87500000 </v>
   <v>       0.50000000       0.00000000       0.75000000 </v>
   <v>       0.62500000       0.12500000       0.87500000 </v>
   <v>       0.50000000       0.25000000       0.50000000 </v>
   <v>       0.62500000       0.37500000       0.62500000 </v>
   <v>       0.75000000       0.00000000       0.50000000 </v>
   <v>       0.87500000       0.12500000       0.62500000 </v>
   <v>       0.75000000       0.75000000       0.25000000 </v>
   <v>       0.87500000       0.87500000       0.37500000 </v>
   <v>       0.50000000       0.50000000       0.25000000 </v>
   <v>       0.62500000       0.62500000       0.37500000 </v>
   <v>       0.50000000       0.75000000       0.00000000 </v>
   <v>       0.62500000       0.87500000       0.12500000 </v>
   <v>       0.75000000       0.50000000       0.00000000 </v>
   <v>       0.87500000       0.62500000       0.12500000 </v>
   <v>       0.75000000       0.75000000       0.75000000 </v>
   <v>       0.87500000       0.87500000       0.87500000 </v>
   <v>       0.50000000       0.50000000       0.75000000 </v>
   <v>       0.62500000       0.62500000       0.87500000 </v>
   <v>       0.50000000       0.75000000       0.50000000 </v>
   <v>       0.62500000       0.87500000       0.62500000 </v>
   <v>       0.75000000       0.50000000       0.50000000 </v>
   <v>       0.87500000       0.62500000       0.62500000 </v>
  </varray>
 </structure>
 <calculation>
  <scstep>
   <time name="dav">   28.46   28.46</time>
   <time name="total">   28.98   28.98</time>
   <energy>
    <i name="alphaZ">    106.68659228 </i>
    <i name="ewald">  -7292.08615189 </i>
    <i name="hartreedc">   -356.37859736 </i>
    <i name="XCdc">   -559.61005462 </i>
    <i name="pawpsdc">   5598.62625415 </i>
    <i name="pawaedc">  -4492.17844134 </i>
    <i name="eentropy">     -0.00670087 </i>
    <i name="bandstr">    898.63750650 </i>
    <i name="atom">   6564.76702419 </i>
    <i name="e_fr_energy">    468.45743105 </i>
    <i name="e_wo_entrp">    468.46413192 </i>
    <i name="e_0_energy">    468.46078149 </i>
   </energy>
  </scstep>
  <scstep>
   <time name="dav">   33.34   33.34</time>
   <time name="total">   33.34   33.34</time>
   <energy>
    <i name="e_fr_energy">   -320.89626728 </i>
    <i name="e_wo_entrp">   -320.89626728 </i>
    <i name="e_0_energy">   -320.89626728 </i>
   </energy>
  </scstep>
  <scstep>
   <time name="dav">   33.52   33.52</time>
   <time name="total">   33.52   33.52</time>
   <energy>
    <i name="e_fr_energy">   -373.21271042 </i>
    <i name="e_wo_entrp">   -373.21271042 </i>
    <i name="e_0_energy">   -373.21271042 </i>
   </energy>
  </scstep>
  <scstep>
   <time name="dav">   33.16   33.16</time>
   <time name="total">   33.16   33.16</time>
   <energy>
    <i name="e_fr_energy">   -374.46530995 </i>
    <i name="e_wo_entrp">   -374.46530995 </i>
    <i name="e_0_energy">   -374.46530995 </i>
   </energy>
  </scstep>
  <scstep>
   <time name="dav">   33.15   33.15</time>
   <time name="total">   33.92   33.92</time>
   <energy>
    <i name="e_fr_energy">   -374.50616419 </i>
    <i name="e_wo_entrp">   -374.50616419 </i>
    <i name="e_0_energy">   -374.50616419 </i>
   </energy>
  </scstep>
  <scstep>
   <time name="dav">   31.10   31.11</time>
   <time name="total">   32.50   32.50</time>
   <energy>
    <i name="e_fr_energy">   -369.67986889 </i>
    <i name="e_wo_entrp">   -369.67986889 </i>
    <i name="e_0_energy">   -369.67986889 </i>
   </energy>
  </scstep>
  <scstep>
   <time name="dav">   31.08   31.08</time>
   <time name="total">   32.47   32.47</time>
   <energy>
    <i name="e_fr_energy">   -367.48027207 </i>
    <i name="e_wo_entrp">   -367.48027207 </i>
    <i name="e_0_energy">   -367.48027207 </i>
   </energy>
  </scstep>
  <scstep>
   <time name="dav">   31.24   31.24</time>
   <time name="total">   32.63   32.64</time>
   <energy>
    <i name="e_fr_energy">   -367.48816329 </i>
    <i name="e_wo_entrp">   -367.48816329 </i>
    <i name="e_0_energy">   -367.48816329 </i>
   </energy>
  </scstep>
  <scstep>
   <time name="dav">   33.14   33.14</time>
   <time name="total">   34.50   34.51</time>
   <energy>
    <i name="e_fr_energy">   -367.48963603 </i>
    <i name="e_wo_entrp">   -367.48963603 </i>
    <i name="e_0_energy">   -367.48963603 </i>
   </energy>
  </scstep>
  <scstep>
   <time name="dav">   30.13   30.13</time>
   <time name="total">   31.49   31.50</time>
   <energy>
    <i name="e_fr_energy">   -367.49048853 </i>
    <i name="e_wo_entrp">   -367.49048853 </i>
    <i name="e_0_energy">   -367.49048853 </i>
   </energy>
  </scstep>
  <scstep>
   <time name="dav">   31.44   31.44</time>
   <time name="total">   32.82   32.82</time>
   <energy>
    <i name="e_fr_energy">   -367.49053544 </i>
    <i name="e_wo_entrp">   -367.49053544 </i>
    <i name="e_0_energy">   -367.49053544 </i>
   </energy>
  </scstep>
  <scstep>
   <time name="dav">   31.36   31.36</time>
   <time name="total">   32.74   32.74</time>
   <energy>
    <i name="e_fr_energy">   -367.49053827 </i>
    <i name="e_wo_entrp">   -367.49053827 </i>
    <i name="e_0_energy">   -367.49053827 </i>
   </energy>
  </scstep>
  <scstep>
   <time name="dav">   31.37   31.37</time>
   <time name="total">   32.77   32.77</time>
   <energy>
    <i name="e_fr_energy">   -367.49053693 </i>
    <i name="e_wo_entrp">   -367.49053693 </i>
    <i name="e_0_energy">   -367.49053693 </i>
   </energy>
  </scstep>
  <scstep>
   <time name="dav">   23.79   23.79</time>
   <time name="total">   25.19   25.19</time>
   <energy>
    <i name="e_fr_energy">   -367.49053691 </i>
    <i name="e_wo_entrp">   -367.49053691 </i>
    <i name="e_0_energy">   -367.49053691 </i>
   </energy>
  </scstep>
  <scstep>
   <time name="dav">   21.74   21.74</time>
   <time name="total">   23.14   23.14</time>
   <energy>
    <i name="e_fr_energy">   -367.49053686 </i>
    <i name="e_wo_entrp">   -367.49053686 </i>
    <i name="e_0_energy">   -367.49053686 </i>
   </energy>
  </scstep>
  <scstep>
   <time name="dav">   20.65   20.65</time>
   <time name="total">   21.15   21.16</time>
   <energy>
    <i name="alphaZ">    106.68659228 </i>
    <i name="ewald">  -7292.08615189 </i>
    <i name="hartreedc">   -471.20922818 </i>
    <i name="XCdc">   -540.24160247 </i>
    <i name="pawpsdc">  28086.95062269 </i>
    <i name="pawaedc"> -26987.22025605 </i>
    <i name="eentropy">     -0.00000000 </i>
    <i name="bandstr">    164.86246257 </i>
    <i name="atom">   6564.76702419 </i>
    <i name="e_fr_energy">   -367.49053686 </i>
    <i name="e_wo_entrp">   -367.49053686 </i>
    <i name="e_0_energy">   -367.49053686 </i>
   </energy>
  </scstep>
  <structure>
   <crystal>
    <varray name="basis" >
     <v>      10.89268312       0.00000000       0.00000000 </v>
     <v>       0.00000000      10.89268312       0.00000000 </v>
     <v>       0.00000000       0.00000000      10.89268312 </v>
    </varray>
    <i name="volume">   1292.42279472 </i>
    <varray name="rec_basis" >
     <v>       0.09180475       0.00000000       0.00000000 </v>
     <v>       0.00000000       0.09180475       0.00000000 </v>
     <v>       0.00000000       0.00000000       0.09180475 </v>
    </varray>
   </crystal>
   <varray name="positions" >
    <v>       0.25091805       0.25000000       0.25000000 </v>
    <v>       0.37500000       0.37500000       0.37500000 </v>
    <v>       0.00000000       0.00000000       0.25000000 </v>
    <v>       0.12500000       0.12500000       0.37500000 </v>
    <v>       0.00000000       0.25000000       0.00000000 </v>
    <v>       0.12500000       0.37500000       0.12500000 </v>
    <v>       0.25000000       0.00000000       0.00000000 </v>
    <v>       0.37500000       0.12500000       0.12500000 </v>
    <v>       0.25000000       0.25000000       0.75000000 </v>
    <v>       0.37500000       0.37500000       0.87500000 </v>
    <v>       0.00000000       0.00000000       0.75000000 </v>
    <v>       0.12500000       0.12500000       0.87500000 </v>
    <v>       0.00000000       0.25000000       0.50000000 </v>
    <v>       0.12500000       0.37500000       0.62500000 </v>
    <v>       0.25000000       0.00000000       0.50000000 </v>
    <v>       0.37500000       0.12500000       0.62500000 </v>
    <v>       0.25000000       0.75000000       0.25000000 </v>
    <v>       0.37500000       0.87500000       0.37500000 </v>
    <v>       0.00000000       0.50000000       0.25000000 </v>
    <v>       0.12500000       0.62500000       0.37500000 </v>
    <v>       0.00000000       0.75000000       0.00000000 </v>
    <v>       0.12500000       0.87500000       0.12500000 </v>
    <v>       0.25000000       0.50000000       0.00000000 </v>
    <v>       0.37500000       0.62500000       0.12500000 </v>
    <v>       0.25000000       0.75000000       0.75000000 </v>
    <v>       0.37500000       0.87500000       0.87500000 </v>
    <v>       0.00000000       0.50000000       0.75000000 </v>
    <v>       0.12500000       0.62500000       0.87500000 </v>
    <v>       0.00000000       0.75000000       0.50000000 </v>
    <v>       0.12500000       0.87500000       0.62500000 </v>
    <v>       0.25000000       0.50000000       0.50000000 </v>
    <v>       0.37500000       0.62500000       0.62500000 </v>
    <v>       0.75000000       0.25000000       0.25000000 </v>
    <v>       0.87500000       0.37500000       0.37500000 </v>
    <v>       0.50000000       0.00000000       0.25000000 </v>
    <v>       0.62500000       0.12500000       0.37500000 </v>
    <v>       0.50000000       0.25000000       0.00000000 </v>
    <v>       0.62500000       0.37500000       0.12500000 </v>
    <v>       0.75000000       0.00000000       0.00000000 </v>
    <v>       0.87500000       0.12500000       0.12500000 </v>
    <v>       0.75000000       0.25000000       0.75000000 </v>
    <v>       0.87500000       0.37500000       0.87500000 </v>
    <v>       0.50000000       0.00000000       0.75000000 </v>
    <v>       0.62500000       0.12500000       0.87500000 </v>
    <v>       0.50000000       0.25000000       0.50000000 </v>
    <v>       0.62500000       0.37500000       0.62500000 </v>
    <v>       0.75000000       0.00000000       0.50000000 </v>
    <v>       0.87500000       0.12500000       0.62500000 </v>
    <v>       0.75000000       0.75000000       0.25000000 </v>
    <v>       0.87500000       0.87500000       0.37500000 </v>
    <v>       0.50000000       0.50000000       0.25000000 </v>
    <v>       0.62500000       0.62500000       0.37500000 </v>
    <v>       0.50000000       0.75000000       0.00000000 </v>
    <v>       0.62500000       0.87500000       0.12500000 </v>
    <v>       0.75000000       0.50000000       0.00000000 </v>
    <v>       0.87500000       0.62500000       0.12500000 </v>
    <v>       0.75000000       0.75000000       0.75000000 </v>
    <v>       0.87500000       0.87500000       0.87500000 </v>
    <v>       0.50000000       0.50000000       0.75000000 </v>
    <v>       0.62500000       0.62500000       0.87500000 </v>
    <v>       0.50000000       0.75000000       0.50000000 </v>
    <v>       0.62500000       0.87500000       0.62500000 </v>
    <v>       0.75000000       0.50000000       0.50000000 </v>
    <v>       0.87500000       0.62500000       0.62500000 </v>
   </varray>
  </structure>
  <varray name="forces" >
   <v>      -0.13023772      -0.00000000       0.00000000 </v>
   <v>       0.03205819       0.02241862       0.02241862 </v>
   <v>       0.00183463       0.00182454      -0.00093325 </v>
   <v>       0.03175260       0.02182463      -0.02182463 </v>
   <v>       0.00183463      -0.00093325       0.00182454 </v>
   <v>       0.03175260      -0.02182463       0.02182463 </v>
   <v>      -0.00426350       0.00094511       0.00094511 </v>
   <v>       0.03205819      -0.02241862      -0.02241862 </v>
   <v>       0.00047793      -0.00000000       0.00000000 </v>
   <v>      -0.00051083       0.00040742       0.00033909 </v>
   <v>       0.00032452      -0.00060326      -0.00007530 </v>
   <v>      -0.00050665       0.00041086      -0.00033450 </v>
   <v>       0.00183463       0.00093325      -0.00182454 </v>
   <v>      -0.00050665      -0.00041086       0.00033450 </v>
   <v>      -0.00425368      -0.00093274       0.00093274 </v>
   <v>      -0.00051083      -0.00040742      -0.00033909 </v>
   <v>       0.00047793      -0.00000000       0.00000000 </v>
   <v>      -0.00051083       0.00033909       0.00040742 </v>
   <v>       0.00183463      -0.00182454       0.00093325 </v>
   <v>      -0.00050665       0.00033450      -0.00041086 </v>
   <v>       0.00032452      -0.00007530      -0.00060326 </v>
   <v>      -0.00050665      -0.00033450       0.00041086 </v>
   <v>      -0.00425368       0.00093274      -0.00093274 </v>
   <v>      -0.00051083      -0.00033909      -0.00040742 </v>
   <v>      -0.00392216      -0.00000000       0.00000000 </v>
   <v>       0.00209016       0.00024736       0.00024736 </v>
   <v>       0.00032452       0.00060326       0.00007530 </v>
   <v>       0.00208080       0.00024589      -0.00024589 </v>
   <v>       0.00032452       0.00007530       0.00060326 </v>
   <v>       0.00208080      -0.00024589       0.00024589 </v>
   <v>      -0.00426350      -0.00094511      -0.00094511 </v>
   <v>       0.00209016      -0.00024736      -0.00024736 </v>
   <v>       0.00017635      -0.00000000       0.00000000 </v>
   <v>      -0.00008980       0.00033727       0.00033727 </v>
   <v>       0.00185125      -0.00183755      -0.00094425 </v>
   <v>      -0.00008968       0.00033578      -0.00033578 </v>
   <v>       0.00185125      -0.00094425      -0.00183755 </v>
   <v>      -0.00008968      -0.00033578       0.00033578 </v>
   <v>      -0.00003707       0.00007474       0.00007474 </v>
   <v>      -0.00008980      -0.00033727      -0.00033727 </v>
   <v>       0.00003876      -0.00000000       0.00000000 </v>
   <v>       0.00021460       0.00024414       0.00020456 </v>
   <v>       0.00032499       0.00060154      -0.00007517 </v>
   <v>       0.00021992       0.00024919      -0.00020800 </v>
   <v>       0.00185125       0.00094425       0.00183755 </v>
   <v>       0.00021992      -0.00024919       0.00020800 </v>
   <v>      -0.00003412      -0.00007522       0.00007522 </v>
   <v>       0.00021460      -0.00024414      -0.00020456 </v>
   <v>       0.00003876      -0.00000000       0.00000000 </v>
   <v>       0.00021460       0.00020456       0.00024414 </v>
   <v>       0.00185125       0.00183755       0.00094425 </v>
   <v>       0.00021992       0.00020800      -0.00024919 </v>
   <v>       0.00032499      -0.00007517       0.00060154 </v>
   <v>       0.00021992      -0.00020800       0.00024919 </v>
   <v>      -0.00003412       0.00007522      -0.00007522 </v>
   <v>       0.00021460      -0.00020456      -0.00024414 </v>
   <v>       0.00022110      -0.00000000       0.00000000 </v>
   <v>      -0.00017725       0.00026969       0.00026969 </v>
   <v>       0.00032499      -0.00060154       0.00007517 </v>
   <v>      -0.00017702       0.00026826      -0.00026826 </v>
   <v>       0.00032499       0.00007517      -0.00060154 </v>
   <v>      -0.00017702      -0.00026826       0.00026826 </v>
   <v>      -0.00003707      -0.00007474      -0.00007474 </v>
   <v>      -0.00017725      -0.00026969      -0.00026969 </v>
  </varray>
  <varray name="stress" >
   <v>      -6.05299570       0.00000000       0.00000000 </v>
   <v>       0.00000000      -6.05074832       0.11897194 </v>
   <v>       0.00000000       0.11897194      -6.05074832 </v>
  </varray>
  <energy>
   <i name="e_fr_energy">   -367.49053686 </i>
   <i name="e_wo_entrp">   -367.49053686 </i>
   <i name="e_0_energy">   -367.49053686 </i>
  </energy>
  <time name="totalsc">  544.41  544.43</time>
  <eigenvalues>
   <array>
    <dimension dim="1">band</dimension>
    <dimension dim="2">kpoint</dimension>
    <dimension dim="3">spin</dimension>
    <field>eigene</field>
    <field>occ</field>
    <set>
     <set comment="spin 1">
      <set comment="kpoint 1">
       <r>   -6.2263    1.0000 </r>
       <r>   -5.1500    1.0000 </r>
       <r>   -5.1486    1.0000 </r>
       <r>   -5.1481    1.0000 </r>
       <r>   -5.1481    1.0000 </r>
       <r>   -5.1476    1.0000 </r>
       <r>   -5.1463    1.0000 </r>
       <r>   -4.1922    1.0000 </r>
       <r>   -4.1895    1.0000 </r>
       <r>   -4.1885    1.0000 </r>
       <r>   -4.1883    1.0000 </r>
       <r>   -4.1883    1.0000 </r>
       <r>   -4.1882    1.0000 </r>
       <r>   -4.1882    1.0000 </r>
       <r>   -4.1882    1.0000 </r>
       <r>   -4.1881    1.0000 </r>
       <r>   -4.1880    1.0000 </r>
       <r>   -4.1869    1.0000 </r>
       <r>   -4.1843    1.0000 </r>
       <r>   -3.8991    1.0000 </r>
       <r>   -3.8984    1.0000 </r>
       <r>   -3.8974    1.0000 </r>
       <r>   -3.8967    1.0000 </r>
       <r>   -2.0984    1.0000 </r>
       <r>   -2.0973    1.0000 </r>
       <r>   -2.0963    1.0000 </r>
       <r>   -2.0963    1.0000 </r>
       <r>   -2.0953    1.0000 </r>
       <r>   -2.0944    1.0000 </r>
       <r>   -1.9339    1.0000 </r>
       <r>   -1.9323    1.0000 </r>
       <r>   -1.9304    1.0000 </r>
       <r>   -1.9302    1.0000 </r>
       <r>   -1.9302    1.0000 </r>
       <r>   -1.9301    1.0000 </r>
       <r>   -1.9301    1.0000 </r>
       <r>   -1.9300    1.0000 </r>
       <r>   -1.9299    1.0000 </r>
       <r>   -1.9297    1.0000 </r>
       <r>   -1.9279    1.0000 </r>
       <r>   -1.9262    1.0000 </r>
       <r>   -1.2708    1.0000 </r>
       <r>   -1.2697    1.0000 </r>
       <r>   -1.2694    1.0000 </r>
       <r>   -1.2682    1.0000 </r>
       <r>    0.2253    1.0000 </r>
       <r>    0.2256    1.0000 </r>
       <r>    0.2280    1.0000 </r>
       <r>    0.2282    1.0000 </r>
       <r>    0.2282    1.0000 </r>
       <r>    0.2283    1.0000 </r>
       <r>    0.2283    1.0000 </r>
       <r>    0.2284    1.0000 </r>
       <r>    0.2284    1.0000 </r>
       <r>    0.2286    1.0000 </r>
       <r>    0.2310    1.0000 </r>
       <r>    0.2313    1.0000 </r>
       <r>    1.8310    1.0000 </r>
       <r>    1.8326    1.0000 </r>
       <r>    1.8329    1.0000 </r>
       <r>    1.8330    1.0000 </r>
       <r>    1.8332    1.0000 </r>
       <r>    1.8334    1.0000 </r>
       <r>    1.8334    1.0000 </r>
       <r>    1.8335    1.0000 </r>
       <r>    1.8337    1.0000 </r>
       <r>    1.8338    1.0000 </r>
       <r>    1.8340    1.0000 </r>
       <r>    1.8356    1.0000 </r>
       <r>    1.9311    1.0000 </r>
       <r>    1.9312    1.0000 </r>
       <r>    1.9315    1.0000 </r>
       <r>    1.9327    1.0000 </r>
       <r>    1.9328    1.0000 </r>
       <r>    1.9328    1.0000 </r>
       <r>    1.9328    1.0000 </r>
       <r>    1.9328    1.0000 </r>
       <r>    1.9330    1.0000 </r>
       <r>    1.9341    1.0000 </r>
       <r>    1.9344    1.0000 </r>
       <r>    1.9346    1.0000 </r>
       <r>    2.1829    1.0000 </r>
       <r>    2.1838    1.0000 </r>
       <r>    2.1848    1.0000 </r>
       <r>    2.1848    1.0000 </r>
       <r>    2.1858    1.0000 </r>
       <r>    2.1867    1.0000 </r>
       <r>    2.8525    1.0000 </r>
       <r>    2.8533    1.0000 </r>
       <r>    2.8534    1.0000 </r>
       <r>    2.8534    1.0000 </r>
       <r>    2.8535    1.0000 </r>
       <r>    2.8543    1.0000 </r>
       <r>    3.8101    1.0000 </r>
       <r>    3.8125    1.0000 </r>
       <r>    3.8132    1.0000 </r>
       <r>    3.8133    1.0000 </r>
       <r>    3.8134    1.0000 </r>
       <r>    3.8134    1.0000 </r>
       <r>    3.8134    1.0000 </r>
       <r>    3.8134    1.0000 </r>
       <r>    3.8135    1.0000 </r>
       <r>    3.8136    1.0000 </r>
       <r>    3.8143    1.0000 </r>
       <r>    3.8167    1.0000 </r>
       <r>    4.3753    1.0000 </r>
       <r>    4.3771    1.0000 </r>
       <r>    4.3783    1.0000 </r>
       <r>    4.3784    1.0000 </r>
       <r>    4.3786    1.0000 </r>
       <r>    4.3787    1.0000 </r>
       <r>    4.3788    1.0000 </r>
       <r>    4.3789    1.0000 </r>
       <r>    4.3790    1.0000 </r>
       <r>    4.3792    1.0000 </r>
       <r>    4.3804    1.0000 </r>
       <r>    4.3821    1.0000 </r>
       <r>    4.5076    1.0000 </r>
       <r>    4.5094    1.0000 </r>
       <r>    4.5098    1.0000 </r>
       <r>    4.5100    1.0000 </r>
       <r>    4.5102    1.0000 </r>
       <r>    4.5104    1.0000 </r>
       <r>    4.5109    1.0000 </r>
       <r>    4.5128    1.0000 </r>
       <r>    5.7051    1.0000 </r>
       <r>    5.7066    1.0000 </r>
       <r>    5.7081    1.0000 </r>
       <r>    6.3116    0.0000 </r>
       <r>    6.3122    0.0000 </r>
       <r>    6.3131    0.0000 </r>
       <r>    6.3131    0.0000 </r>
       <r>    6.3140    0.0000 </r>
       <r>    6.3145    0.0000 </r>
       <r>    6.7474    0.0000 </r>
       <r>    6.7476    0.0000 </r>
       <r>    6.7488    0.0000 </r>
       <r>    6.7488    0.0000 </r>
       <r>    6.7499    0.0000 </r>
       <r>    6.7502    0.0000 </r>
       <r>    7.1434    0.0000 </r>
       <r>    7.1436    0.0000 </r>
       <r>    7.1438    0.0000 </r>
       <r>    7.1440    0.0000 </r>
       <r>    8.0657    0.0000 </r>
       <r>    8.0658    0.0000 </r>
       <r>    8.0679    0.0000 </r>
       <r>    8.0679    0.0000 </r>
       <r>    8.0681    0.0000 </r>
       <r>    8.0681    0.0000 </r>
       <r>    8.0681    0.0000 </r>
       <r>    8.0682    0.0000 </r>
       <r>    8.0683    0.0000 </r>
       <r>    8.0684    0.0000 </r>
       <r>    8.0704    0.0000 </r>
       <r>    8.0705    0.0000 </r>
       <r>    8.2201    0.0000 </r>
       <r>    8.2209    0.0000 </r>
       <r>    8.2218    0.0000 </r>
       <r>    8.7334    0.0000 </r>
       <r>    8.7338    0.0000 </r>
       <r>    8.7345    0.0000 </r>
      </set>
      <set comment="kpoint 2">
       <r>   -5.9551    1.0000 </r>
       <r>   -5.9537    1.0000 </r>
       <r>   -4.9032    1.0000 </r>
       <r>   -4.9023    1.0000 </r>
       <r>   -4.9013    1.0000 </r>
       <r>   -4.9012    1.0000 </r>
       <r>   -4.9011    1.0000 </r>
       <r>   -4.9010    1.0000 </r>
       <r>   -4.9000    1.0000 </r>
       <r>   -4.8992    1.0000 </r>
       <r>   -4.0597    1.0000 </r>
       <r>   -4.0586    1.0000 </r>
       <r>   -4.0577    1.0000 </r>
       <r>   -4.0576    1.0000 </r>
       <r>   -4.0575    1.0000 </r>
       <r>   -4.0574    1.0000 </r>
       <r>   -4.0565    1.0000 </r>
       <r>   -4.0555    1.0000 </r>
       <r>   -3.8412    1.0000 </r>
       <r>   -3.8389    1.0000 </r>
       <r>   -3.1203    1.0000 </r>
       <r>   -3.1179    1.0000 </r>
       <r>   -3.1171    1.0000 </r>
       <r>   -3.1169    1.0000 </r>
       <r>   -3.1167    1.0000 </r>
       <r>   -3.1165    1.0000 </r>
       <r>   -3.1157    1.0000 </r>
       <r>   -3.1133    1.0000 </r>
       <r>   -2.0194    1.0000 </r>
       <r>   -2.0175    1.0000 </r>
       <r>   -2.0174    1.0000 </r>
       <r>   -2.0173    1.0000 </r>
       <r>   -2.0172    1.0000 </r>
       <r>   -2.0170    1.0000 </r>
       <r>   -2.0170    1.0000 </r>
       <r>   -2.0151    1.0000 </r>
       <r>   -0.8558    1.0000 </r>
       <r>   -0.8549    1.0000 </r>
       <r>   -0.8539    1.0000 </r>
       <r>   -0.8537    1.0000 </r>
       <r>   -0.8534    1.0000 </r>
       <r>   -0.8532    1.0000 </r>
       <r>   -0.8521    1.0000 </r>
       <r>   -0.8513    1.0000 </r>
       <r>   -0.6775    1.0000 </r>
       <r>   -0.6764    1.0000 </r>
       <r>   -0.6757    1.0000 </r>
       <r>   -0.6751    1.0000 </r>
       <r>   -0.6751    1.0000 </r>
       <r>   -0.6746    1.0000 </r>
       <r>   -0.6739    1.0000 </r>
       <r>   -0.6727    1.0000 </r>
       <r>   -0.0336    1.0000 </r>
       <r>   -0.0321    1.0000 </r>
       <r>    1.4119    1.0000 </r>
       <r>    1.4135    1.0000 </r>
       <r>    1.4146    1.0000 </r>
       <r>    1.4147    1.0000 </r>
       <r>    1.4148    1.0000 </r>
       <r>    1.4149    1.0000 </r>
       <r>    1.4158    1.0000 </r>
       <r>    1.4174    1.0000 </r>
       <r>    1.4552    1.0000 </r>
       <r>    1.4562    1.0000 </r>
       <r>    1.4566    1.0000 </r>
       <r>    1.4567    1.0000 </r>
       <r>    1.4572    1.0000 </r>
       <r>    1.4573    1.0000 </r>
       <r>    1.4579    1.0000 </r>
       <r>    1.4588    1.0000 </r>
       <r>    2.2752    1.0000 </r>
       <r>    2.2753    1.0000 </r>
       <r>    2.2753    1.0000 </r>
       <r>    2.2758    1.0000 </r>
       <r>    2.2758    1.0000 </r>
       <r>    2.2762    1.0000 </r>
       <r>    2.2762    1.0000 </r>
       <r>    2.2764    1.0000 </r>
       <r>    2.9752    1.0000 </r>
       <r>    2.9768    1.0000 </r>
       <r>    2.9769    1.0000 </r>
       <r>    2.9774    1.0000 </r>
       <r>    2.9777    1.0000 </r>
       <r>    2.9781    1.0000 </r>
       <r>    2.9782    1.0000 </r>
       <r>    2.9798    1.0000 </r>
       <r>    3.0969    1.0000 </r>
       <r>    3.0981    1.0000 </r>
       <r>    3.0988    1.0000 </r>
       <r>    3.0998    1.0000 </r>
       <r>    3.1096    1.0000 </r>
       <r>    3.1101    1.0000 </r>
       <r>    3.1109    1.0000 </r>
       <r>    3.1111    1.0000 </r>
       <r>    3.1114    1.0000 </r>
       <r>    3.1115    1.0000 </r>
       <r>    3.1126    1.0000 </r>
       <r>    3.1129    1.0000 </r>
       <r>    3.2309    1.0000 </r>
       <r>    3.2313    1.0000 </r>
       <r>    3.2313    1.0000 </r>
       <r>    3.2319    1.0000 </r>
       <r>    3.2321    1.0000 </r>
       <r>    3.2327    1.0000 </r>
       <r>    3.2328    1.0000 </r>
       <r>    3.2331    1.0000 </r>
       <r>    4.2734    1.0000 </r>
       <r>    4.2735    1.0000 </r>
       <r>    4.2741    1.0000 </r>
       <r>    4.2743    1.0000 </r>
       <r>    4.2744    1.0000 </r>
       <r>    4.2746    1.0000 </r>
       <r>    4.2753    1.0000 </r>
       <r>    4.2753    1.0000 </r>
       <r>    4.3613    1.0000 </r>
       <r>    4.3614    1.0000 </r>
       <r>    4.4376    1.0000 </r>
       <r>    4.4412    1.0000 </r>
       <r>    4.4418    1.0000 </r>
       <r>    4.4418    1.0000 </r>
       <r>    4.4419    1.0000 </r>
       <r>    4.4419    1.0000 </r>
       <r>    4.4425    1.0000 </r>
       <r>    4.4461    1.0000 </r>
       <r>    4.8933    1.0000 </r>
       <r>    4.8952    1.0000 </r>
       <r>    4.8962    1.0000 </r>
       <r>    4.8981    1.0000 </r>
       <r>    6.2233    0.0000 </r>
       <r>    6.2248    0.0000 </r>
       <r>    7.1389    0.0000 </r>
       <r>    7.1401    0.0000 </r>
       <r>    7.5828    0.0000 </r>
       <r>    7.5842    0.0000 </r>
       <r>    7.5844    0.0000 </r>
       <r>    7.5849    0.0000 </r>
       <r>    7.5850    0.0000 </r>
       <r>    7.5855    0.0000 </r>
       <r>    7.5857    0.0000 </r>
       <r>    7.5871    0.0000 </r>
       <r>    7.6489    0.0000 </r>
       <r>    7.6495    0.0000 </r>
       <r>    7.9764    0.0000 </r>
       <r>    7.9783    0.0000 </r>
       <r>    7.9787    0.0000 </r>
       <r>    7.9788    0.0000 </r>
       <r>    7.9789    0.0000 </r>
       <r>    7.9790    0.0000 </r>
       <r>    7.9795    0.0000 </r>
       <r>    7.9813    0.0000 </r>
       <r>    8.0765    0.0000 </r>
       <r>    8.0780    0.0000 </r>
       <r>    8.0781    0.0000 </r>
       <r>    8.0782    0.0000 </r>
       <r>    8.0787    0.0000 </r>
       <r>    8.0789    0.0000 </r>
       <r>    8.0791    0.0000 </r>
       <r>    8.0805    0.0000 </r>
       <r>    8.4854    0.0000 </r>
       <r>    8.4860    0.0000 </r>
       <r>    8.4865    0.0000 </r>
       <r>    8.4873    0.0000 </r>
      </set>
      <set comment="kpoint 3">
       <r>   -5.9544    1.0000 </r>
       <r>   -5.9544    1.0000 </r>
       <r>   -4.9041    1.0000 </r>
       <r>   -4.9018    1.0000 </r>
       <r>   -4.9015    1.0000 </r>
       <r>   -4.9013    1.0000 </r>
       <r>   -4.9011    1.0000 </r>
       <r>   -4.9009    1.0000 </r>
       <r>   -4.9006    1.0000 </r>
       <r>   -4.8983    1.0000 </r>
       <r>   -4.0603    1.0000 </r>
       <r>   -4.0584    1.0000 </r>
       <r>   -4.0577    1.0000 </r>
       <r>   -4.0577    1.0000 </r>
       <r>   -4.0574    1.0000 </r>
       <r>   -4.0574    1.0000 </r>
       <r>   -4.0567    1.0000 </r>
       <r>   -4.0549    1.0000 </r>
       <r>   -3.8401    1.0000 </r>
       <r>   -3.8401    1.0000 </r>
       <r>   -3.1188    1.0000 </r>
       <r>   -3.1180    1.0000 </r>
       <r>   -3.1170    1.0000 </r>
       <r>   -3.1168    1.0000 </r>
       <r>   -3.1168    1.0000 </r>
       <r>   -3.1166    1.0000 </r>
       <r>   -3.1156    1.0000 </r>
       <r>   -3.1148    1.0000 </r>
       <r>   -2.0203    1.0000 </r>
       <r>   -2.0173    1.0000 </r>
       <r>   -2.0172    1.0000 </r>
       <r>   -2.0172    1.0000 </r>
       <r>   -2.0172    1.0000 </r>
       <r>   -2.0172    1.0000 </r>
       <r>   -2.0172    1.0000 </r>
       <r>   -2.0142    1.0000 </r>
       <r>   -0.8561    1.0000 </r>
       <r>   -0.8552    1.0000 </r>
       <r>   -0.8536    1.0000 </r>
       <r>   -0.8536    1.0000 </r>
       <r>   -0.8535    1.0000 </r>
       <r>   -0.8534    1.0000 </r>
       <r>   -0.8519    1.0000 </r>
       <r>   -0.8510    1.0000 </r>
       <r>   -0.6775    1.0000 </r>
       <r>   -0.6762    1.0000 </r>
       <r>   -0.6753    1.0000 </r>
       <r>   -0.6752    1.0000 </r>
       <r>   -0.6750    1.0000 </r>
       <r>   -0.6750    1.0000 </r>
       <r>   -0.6741    1.0000 </r>
       <r>   -0.6727    1.0000 </r>
       <r>   -0.0329    1.0000 </r>
       <r>   -0.0329    1.0000 </r>
       <r>    1.4128    1.0000 </r>
       <r>    1.4131    1.0000 </r>
       <r>    1.4146    1.0000 </r>
       <r>    1.4146    1.0000 </r>
       <r>    1.4148    1.0000 </r>
       <r>    1.4149    1.0000 </r>
       <r>    1.4162    1.0000 </r>
       <r>    1.4166    1.0000 </r>
       <r>    1.4555    1.0000 </r>
       <r>    1.4565    1.0000 </r>
       <r>    1.4567    1.0000 </r>
       <r>    1.4567    1.0000 </r>
       <r>    1.4572    1.0000 </r>
       <r>    1.4572    1.0000 </r>
       <r>    1.4574    1.0000 </r>
       <r>    1.4585    1.0000 </r>
       <r>    2.2746    1.0000 </r>
       <r>    2.2749    1.0000 </r>
       <r>    2.2757    1.0000 </r>
       <r>    2.2758    1.0000 </r>
       <r>    2.2758    1.0000 </r>
       <r>    2.2758    1.0000 </r>
       <r>    2.2766    1.0000 </r>
       <r>    2.2769    1.0000 </r>
       <r>    2.9765    1.0000 </r>
       <r>    2.9768    1.0000 </r>
       <r>    2.9773    1.0000 </r>
       <r>    2.9775    1.0000 </r>
       <r>    2.9776    1.0000 </r>
       <r>    2.9777    1.0000 </r>
       <r>    2.9782    1.0000 </r>
       <r>    2.9786    1.0000 </r>
       <r>    3.0983    1.0000 </r>
       <r>    3.0984    1.0000 </r>
       <r>    3.0985    1.0000 </r>
       <r>    3.0985    1.0000 </r>
       <r>    3.1099    1.0000 </r>
       <r>    3.1101    1.0000 </r>
       <r>    3.1111    1.0000 </r>
       <r>    3.1111    1.0000 </r>
       <r>    3.1114    1.0000 </r>
       <r>    3.1114    1.0000 </r>
       <r>    3.1124    1.0000 </r>
       <r>    3.1127    1.0000 </r>
       <r>    3.2299    1.0000 </r>
       <r>    3.2309    1.0000 </r>
       <r>    3.2318    1.0000 </r>
       <r>    3.2320    1.0000 </r>
       <r>    3.2320    1.0000 </r>
       <r>    3.2321    1.0000 </r>
       <r>    3.2331    1.0000 </r>
       <r>    3.2341    1.0000 </r>
       <r>    4.2716    1.0000 </r>
       <r>    4.2733    1.0000 </r>
       <r>    4.2742    1.0000 </r>
       <r>    4.2742    1.0000 </r>
       <r>    4.2745    1.0000 </r>
       <r>    4.2745    1.0000 </r>
       <r>    4.2754    1.0000 </r>
       <r>    4.2770    1.0000 </r>
       <r>    4.3613    1.0000 </r>
       <r>    4.3614    1.0000 </r>
       <r>    4.4403    1.0000 </r>
       <r>    4.4416    1.0000 </r>
       <r>    4.4418    1.0000 </r>
       <r>    4.4418    1.0000 </r>
       <r>    4.4418    1.0000 </r>
       <r>    4.4419    1.0000 </r>
       <r>    4.4422    1.0000 </r>
       <r>    4.4434    1.0000 </r>
       <r>    4.8957    1.0000 </r>
       <r>    4.8957    1.0000 </r>
       <r>    4.8957    1.0000 </r>
       <r>    4.8957    1.0000 </r>
       <r>    6.2240    0.0000 </r>
       <r>    6.2240    0.0000 </r>
       <r>    7.1395    0.0000 </r>
       <r>    7.1395    0.0000 </r>
       <r>    7.5836    0.0000 </r>
       <r>    7.5836    0.0000 </r>
       <r>    7.5848    0.0000 </r>
       <r>    7.5849    0.0000 </r>
       <r>    7.5850    0.0000 </r>
       <r>    7.5851    0.0000 </r>
       <r>    7.5863    0.0000 </r>
       <r>    7.5863    0.0000 </r>
       <r>    7.6492    0.0000 </r>
       <r>    7.6492    0.0000 </r>
       <r>    7.9783    0.0000 </r>
       <r>    7.9784    0.0000 </r>
       <r>    7.9786    0.0000 </r>
       <r>    7.9788    0.0000 </r>
       <r>    7.9789    0.0000 </r>
       <r>    7.9791    0.0000 </r>
       <r>    7.9793    0.0000 </r>
       <r>    7.9794    0.0000 </r>
       <r>    8.0772    0.0000 </r>
       <r>    8.0772    0.0000 </r>
       <r>    8.0781    0.0000 </r>
       <r>    8.0784    0.0000 </r>
       <r>    8.0786    0.0000 </r>
       <r>    8.0789    0.0000 </r>
       <r>    8.0798    0.0000 </r>
       <r>    8.0798    0.0000 </r>
       <r>    8.4858    0.0000 </r>
       <r>    8.4860    0.0000 </r>
       <r>    8.4866    0.0000 </r>
       <r>    8.4871    0.0000 </r>
      </set>
      <set comment="kpoint 4">
       <r>   -5.6890    1.0000 </r>
       <r>   -5.6879    1.0000 </r>
       <r>   -5.6876    1.0000 </r>
       <r>   -5.6866    1.0000 </r>
       <r>   -4.6760    1.0000 </r>
       <r>   -4.6749    1.0000 </r>
       <r>   -4.6744    1.0000 </r>
       <r>   -4.6743    1.0000 </r>
       <r>   -4.6741    1.0000 </r>
       <r>   -4.6741    1.0000 </r>
       <r>   -4.6736    1.0000 </r>
       <r>   -4.6724    1.0000 </r>
       <r>   -3.6446    1.0000 </r>
       <r>   -3.6421    1.0000 </r>
       <r>   -3.6415    1.0000 </r>
       <r>   -3.6414    1.0000 </r>
       <r>   -3.6413    1.0000 </r>
       <r>   -3.6412    1.0000 </r>
       <r>   -3.6406    1.0000 </r>
       <r>   -3.6382    1.0000 </r>
       <r>   -3.3644    1.0000 </r>
       <r>   -3.3625    1.0000 </r>
       <r>   -3.3618    1.0000 </r>
       <r>   -3.3617    1.0000 </r>
       <r>   -3.3616    1.0000 </r>
       <r>   -3.3615    1.0000 </r>
       <r>   -3.3608    1.0000 </r>
       <r>   -3.3588    1.0000 </r>
       <r>   -2.5055    1.0000 </r>
       <r>   -2.5051    1.0000 </r>
       <r>   -2.5040    1.0000 </r>
       <r>   -2.5037    1.0000 </r>
       <r>   -1.5102    1.0000 </r>
       <r>   -1.5101    1.0000 </r>
       <r>   -1.5088    1.0000 </r>
       <r>   -1.5086    1.0000 </r>
       <r>   -1.0824    1.0000 </r>
       <r>   -1.0807    1.0000 </r>
       <r>   -1.0799    1.0000 </r>
       <r>   -1.0799    1.0000 </r>
       <r>   -1.0798    1.0000 </r>
       <r>   -1.0798    1.0000 </r>
       <r>   -1.0789    1.0000 </r>
       <r>   -1.0772    1.0000 </r>
       <r>   -0.2525    1.0000 </r>
       <r>   -0.2515    1.0000 </r>
       <r>   -0.2503    1.0000 </r>
       <r>   -0.2502    1.0000 </r>
       <r>   -0.2502    1.0000 </r>
       <r>   -0.2501    1.0000 </r>
       <r>   -0.2490    1.0000 </r>
       <r>   -0.2479    1.0000 </r>
       <r>    0.4147    1.0000 </r>
       <r>    0.4150    1.0000 </r>
       <r>    0.4162    1.0000 </r>
       <r>    0.4165    1.0000 </r>
       <r>    0.4167    1.0000 </r>
       <r>    0.4170    1.0000 </r>
       <r>    0.4182    1.0000 </r>
       <r>    0.4185    1.0000 </r>
       <r>    1.3816    1.0000 </r>
       <r>    1.3820    1.0000 </r>
       <r>    1.3822    1.0000 </r>
       <r>    1.3826    1.0000 </r>
       <r>    2.2388    1.0000 </r>
       <r>    2.2394    1.0000 </r>
       <r>    2.2399    1.0000 </r>
       <r>    2.2400    1.0000 </r>
       <r>    2.2402    1.0000 </r>
       <r>    2.2403    1.0000 </r>
       <r>    2.2408    1.0000 </r>
       <r>    2.2414    1.0000 </r>
       <r>    2.3278    1.0000 </r>
       <r>    2.3280    1.0000 </r>
       <r>    2.3287    1.0000 </r>
       <r>    2.3287    1.0000 </r>
       <r>    2.3290    1.0000 </r>
       <r>    2.3291    1.0000 </r>
       <r>    2.3298    1.0000 </r>
       <r>    2.3300    1.0000 </r>
       <r>    2.9356    1.0000 </r>
       <r>    2.9360    1.0000 </r>
       <r>    2.9365    1.0000 </r>
       <r>    2.9366    1.0000 </r>
       <r>    2.9367    1.0000 </r>
       <r>    2.9368    1.0000 </r>
       <r>    2.9372    1.0000 </r>
       <r>    2.9378    1.0000 </r>
       <r>    3.0132    1.0000 </r>
       <r>    3.0133    1.0000 </r>
       <r>    3.0141    1.0000 </r>
       <r>    3.0141    1.0000 </r>
       <r>    3.2797    1.0000 </r>
       <r>    3.2805    1.0000 </r>
       <r>    3.2805    1.0000 </r>
       <r>    3.2812    1.0000 </r>
       <r>    3.5382    1.0000 </r>
       <r>    3.5391    1.0000 </r>
       <r>    3.5400    1.0000 </r>
       <r>    3.5400    1.0000 </r>
       <r>    3.5401    1.0000 </r>
       <r>    3.5401    1.0000 </r>
       <r>    3.5411    1.0000 </r>
       <r>    3.5419    1.0000 </r>
       <r>    3.8575    1.0000 </r>
       <r>    3.8590    1.0000 </r>
       <r>    3.8595    1.0000 </r>
       <r>    3.8599    1.0000 </r>
       <r>    3.8599    1.0000 </r>
       <r>    3.8603    1.0000 </r>
       <r>    3.8608    1.0000 </r>
       <r>    3.8623    1.0000 </r>
       <r>    4.0645    1.0000 </r>
       <r>    4.0646    1.0000 </r>
       <r>    4.0649    1.0000 </r>
       <r>    4.0650    1.0000 </r>
       <r>    4.1173    1.0000 </r>
       <r>    4.1180    1.0000 </r>
       <r>    4.1183    1.0000 </r>
       <r>    4.1183    1.0000 </r>
       <r>    4.1183    1.0000 </r>
       <r>    4.1184    1.0000 </r>
       <r>    4.1187    1.0000 </r>
       <r>    4.1193    1.0000 </r>
       <r>    5.4151    1.0000 </r>
       <r>    5.4154    1.0000 </r>
       <r>    5.4157    1.0000 </r>
       <r>    5.4160    1.0000 </r>
       <r>    6.8091    0.0000 </r>
       <r>    6.8095    0.0000 </r>
       <r>    6.8097    0.0000 </r>
       <r>    6.8101    0.0000 </r>
       <r>    7.5668    0.0000 </r>
       <r>    7.5674    0.0000 </r>
       <r>    7.5681    0.0000 </r>
       <r>    7.5682    0.0000 </r>
       <r>    7.5686    0.0000 </r>
       <r>    7.5687    0.0000 </r>
       <r>    7.5693    0.0000 </r>
       <r>    7.5699    0.0000 </r>
       <r>    7.8682    0.0000 </r>
       <r>    7.8683    0.0000 </r>
       <r>    7.8685    0.0000 </r>
       <r>    7.8685    0.0000 </r>
       <r>    7.8690    0.0000 </r>
       <r>    7.8691    0.0000 </r>
       <r>    7.8693    0.0000 </r>
       <r>    7.8693    0.0000 </r>
       <r>    8.2524    0.0000 </r>
       <r>    8.2528    0.0000 </r>
       <r>    8.2532    0.0000 </r>
       <r>    8.2533    0.0000 </r>
       <r>    8.2534    0.0000 </r>
       <r>    8.2536    0.0000 </r>
       <r>    8.2540    0.0000 </r>
       <r>    8.2543    0.0000 </r>
       <r>    8.6794    0.0000 </r>
       <r>    8.6818    0.0000 </r>
       <r>    8.6843    0.0000 </r>
       <r>    8.6909    0.0000 </r>
       <r>    8.6963    0.0000 </r>
       <r>    8.7102    0.0000 </r>
      </set>
      <set comment="kpoint 5">
       <r>   -5.6881    1.0000 </r>
       <r>   -5.6880    1.0000 </r>
       <r>   -5.6875    1.0000 </r>
       <r>   -5.6875    1.0000 </r>
       <r>   -4.6778    1.0000 </r>
       <r>   -4.6747    1.0000 </r>
       <r>   -4.6744    1.0000 </r>
       <r>   -4.6742    1.0000 </r>
       <r>   -4.6742    1.0000 </r>
       <r>   -4.6741    1.0000 </r>
       <r>   -4.6737    1.0000 </r>
       <r>   -4.6707    1.0000 </r>
       <r>   -3.6425    1.0000 </r>
       <r>   -3.6424    1.0000 </r>
       <r>   -3.6416    1.0000 </r>
       <r>   -3.6414    1.0000 </r>
       <r>   -3.6413    1.0000 </r>
       <r>   -3.6411    1.0000 </r>
       <r>   -3.6403    1.0000 </r>
       <r>   -3.6402    1.0000 </r>
       <r>   -3.3632    1.0000 </r>
       <r>   -3.3630    1.0000 </r>
       <r>   -3.3619    1.0000 </r>
       <r>   -3.3617    1.0000 </r>
       <r>   -3.3616    1.0000 </r>
       <r>   -3.3614    1.0000 </r>
       <r>   -3.3603    1.0000 </r>
       <r>   -3.3601    1.0000 </r>
       <r>   -2.5065    1.0000 </r>
       <r>   -2.5050    1.0000 </r>
       <r>   -2.5042    1.0000 </r>
       <r>   -2.5026    1.0000 </r>
       <r>   -1.5110    1.0000 </r>
       <r>   -1.5098    1.0000 </r>
       <r>   -1.5090    1.0000 </r>
       <r>   -1.5079    1.0000 </r>
       <r>   -1.0824    1.0000 </r>
       <r>   -1.0812    1.0000 </r>
       <r>   -1.0800    1.0000 </r>
       <r>   -1.0799    1.0000 </r>
       <r>   -1.0798    1.0000 </r>
       <r>   -1.0796    1.0000 </r>
       <r>   -1.0784    1.0000 </r>
       <r>   -1.0772    1.0000 </r>
       <r>   -0.2526    1.0000 </r>
       <r>   -0.2522    1.0000 </r>
       <r>   -0.2504    1.0000 </r>
       <r>   -0.2503    1.0000 </r>
       <r>   -0.2501    1.0000 </r>
       <r>   -0.2501    1.0000 </r>
       <r>   -0.2482    1.0000 </r>
       <r>   -0.2479    1.0000 </r>
       <r>    0.4147    1.0000 </r>
       <r>    0.4153    1.0000 </r>
       <r>    0.4163    1.0000 </r>
       <r>    0.4165    1.0000 </r>
       <r>    0.4167    1.0000 </r>
       <r>    0.4169    1.0000 </r>
       <r>    0.4179    1.0000 </r>
       <r>    0.4185    1.0000 </r>
       <r>    1.3813    1.0000 </r>
       <r>    1.3821    1.0000 </r>
       <r>    1.3822    1.0000 </r>
       <r>    1.3830    1.0000 </r>
       <r>    2.2381    1.0000 </r>
       <r>    2.2386    1.0000 </r>
       <r>    2.2397    1.0000 </r>
       <r>    2.2398    1.0000 </r>
       <r>    2.2405    1.0000 </r>
       <r>    2.2405    1.0000 </r>
       <r>    2.2415    1.0000 </r>
       <r>    2.2421    1.0000 </r>
       <r>    2.3280    1.0000 </r>
       <r>    2.3282    1.0000 </r>
       <r>    2.3285    1.0000 </r>
       <r>    2.3286    1.0000 </r>
       <r>    2.3291    1.0000 </r>
       <r>    2.3292    1.0000 </r>
       <r>    2.3295    1.0000 </r>
       <r>    2.3298    1.0000 </r>
       <r>    2.9349    1.0000 </r>
       <r>    2.9352    1.0000 </r>
       <r>    2.9363    1.0000 </r>
       <r>    2.9365    1.0000 </r>
       <r>    2.9368    1.0000 </r>
       <r>    2.9371    1.0000 </r>
       <r>    2.9381    1.0000 </r>
       <r>    2.9383    1.0000 </r>
       <r>    3.0121    1.0000 </r>
       <r>    3.0131    1.0000 </r>
       <r>    3.0143    1.0000 </r>
       <r>    3.0153    1.0000 </r>
       <r>    3.2791    1.0000 </r>
       <r>    3.2803    1.0000 </r>
       <r>    3.2807    1.0000 </r>
       <r>    3.2819    1.0000 </r>
       <r>    3.5389    1.0000 </r>
       <r>    3.5394    1.0000 </r>
       <r>    3.5399    1.0000 </r>
       <r>    3.5399    1.0000 </r>
       <r>    3.5402    1.0000 </r>
       <r>    3.5403    1.0000 </r>
       <r>    3.5407    1.0000 </r>
       <r>    3.5412    1.0000 </r>
       <r>    3.8587    1.0000 </r>
       <r>    3.8590    1.0000 </r>
       <r>    3.8596    1.0000 </r>
       <r>    3.8597    1.0000 </r>
       <r>    3.8601    1.0000 </r>
       <r>    3.8602    1.0000 </r>
       <r>    3.8608    1.0000 </r>
       <r>    3.8611    1.0000 </r>
       <r>    4.0643    1.0000 </r>
       <r>    4.0647    1.0000 </r>
       <r>    4.0648    1.0000 </r>
       <r>    4.0652    1.0000 </r>
       <r>    4.1141    1.0000 </r>
       <r>    4.1176    1.0000 </r>
       <r>    4.1179    1.0000 </r>
       <r>    4.1182    1.0000 </r>
       <r>    4.1184    1.0000 </r>
       <r>    4.1186    1.0000 </r>
       <r>    4.1190    1.0000 </r>
       <r>    4.1226    1.0000 </r>
       <r>    5.4127    1.0000 </r>
       <r>    5.4153    1.0000 </r>
       <r>    5.4158    1.0000 </r>
       <r>    5.4185    1.0000 </r>
       <r>    6.8080    0.0000 </r>
       <r>    6.8095    0.0000 </r>
       <r>    6.8097    0.0000 </r>
       <r>    6.8112    0.0000 </r>
       <r>    7.5662    0.0000 </r>
       <r>    7.5677    0.0000 </r>
       <r>    7.5679    0.0000 </r>
       <r>    7.5681    0.0000 </r>
       <r>    7.5686    0.0000 </r>
       <r>    7.5689    0.0000 </r>
       <r>    7.5690    0.0000 </r>
       <r>    7.5705    0.0000 </r>
       <r>    7.8656    0.0000 </r>
       <r>    7.8681    0.0000 </r>
       <r>    7.8686    0.0000 </r>
       <r>    7.8687    0.0000 </r>
       <r>    7.8689    0.0000 </r>
       <r>    7.8689    0.0000 </r>
       <r>    7.8695    0.0000 </r>
       <r>    7.8719    0.0000 </r>
       <r>    8.2513    0.0000 </r>
       <r>    8.2522    0.0000 </r>
       <r>    8.2527    0.0000 </r>
       <r>    8.2532    0.0000 </r>
       <r>    8.2536    0.0000 </r>
       <r>    8.2541    0.0000 </r>
       <r>    8.2544    0.0000 </r>
       <r>    8.2554    0.0000 </r>
       <r>    8.6792    0.0000 </r>
       <r>    8.6799    0.0000 </r>
       <r>    8.6847    0.0000 </r>
       <r>    8.6940    0.0000 </r>
       <r>    8.6980    0.0000 </r>
       <r>    8.7052    0.0000 </r>
      </set>
      <set comment="kpoint 6">
       <r>   -5.4315    1.0000 </r>
       <r>   -5.4297    1.0000 </r>
       <r>   -5.4293    1.0000 </r>
       <r>   -5.4292    1.0000 </r>
       <r>   -5.4291    1.0000 </r>
       <r>   -5.4290    1.0000 </r>
       <r>   -5.4286    1.0000 </r>
       <r>   -5.4269    1.0000 </r>
       <r>   -3.5234    1.0000 </r>
       <r>   -3.5186    1.0000 </r>
       <r>   -3.5162    1.0000 </r>
       <r>   -3.5160    1.0000 </r>
       <r>   -3.5157    1.0000 </r>
       <r>   -3.5157    1.0000 </r>
       <r>   -3.5156    1.0000 </r>
       <r>   -3.5155    1.0000 </r>
       <r>   -3.5155    1.0000 </r>
       <r>   -3.5155    1.0000 </r>
       <r>   -3.5154    1.0000 </r>
       <r>   -3.5154    1.0000 </r>
       <r>   -3.5154    1.0000 </r>
       <r>   -3.5154    1.0000 </r>
       <r>   -3.5153    1.0000 </r>
       <r>   -3.5153    1.0000 </r>
       <r>   -3.5153    1.0000 </r>
       <r>   -3.5152    1.0000 </r>
       <r>   -3.5151    1.0000 </r>
       <r>   -3.5150    1.0000 </r>
       <r>   -3.5148    1.0000 </r>
       <r>   -3.5146    1.0000 </r>
       <r>   -3.5122    1.0000 </r>
       <r>   -3.5075    1.0000 </r>
       <r>   -0.6796    1.0000 </r>
       <r>   -0.6770    1.0000 </r>
       <r>   -0.6731    1.0000 </r>
       <r>   -0.6730    1.0000 </r>
       <r>   -0.6728    1.0000 </r>
       <r>   -0.6727    1.0000 </r>
       <r>   -0.6726    1.0000 </r>
       <r>   -0.6726    1.0000 </r>
       <r>   -0.6726    1.0000 </r>
       <r>   -0.6725    1.0000 </r>
       <r>   -0.6725    1.0000 </r>
       <r>   -0.6724    1.0000 </r>
       <r>   -0.6724    1.0000 </r>
       <r>   -0.6723    1.0000 </r>
       <r>   -0.6722    1.0000 </r>
       <r>   -0.6722    1.0000 </r>
       <r>   -0.6722    1.0000 </r>
       <r>   -0.6722    1.0000 </r>
       <r>   -0.6721    1.0000 </r>
       <r>   -0.6719    1.0000 </r>
       <r>   -0.6718    1.0000 </r>
       <r>   -0.6717    1.0000 </r>
       <r>   -0.6678    1.0000 </r>
       <r>   -0.6651    1.0000 </r>
       <r>    1.7674    1.0000 </r>
       <r>    1.7680    1.0000 </r>
       <r>    1.7688    1.0000 </r>
       <r>    1.7692    1.0000 </r>
       <r>    1.7694    1.0000 </r>
       <r>    1.7698    1.0000 </r>
       <r>    1.7706    1.0000 </r>
       <r>    1.7712    1.0000 </r>
       <r>    2.1496    1.0000 </r>
       <r>    2.1507    1.0000 </r>
       <r>    2.1525    1.0000 </r>
       <r>    2.1535    1.0000 </r>
       <r>    2.1536    1.0000 </r>
       <r>    2.1538    1.0000 </r>
       <r>    2.1538    1.0000 </r>
       <r>    2.1538    1.0000 </r>
       <r>    2.1539    1.0000 </r>
       <r>    2.1540    1.0000 </r>
       <r>    2.1541    1.0000 </r>
       <r>    2.1541    1.0000 </r>
       <r>    2.1542    1.0000 </r>
       <r>    2.1542    1.0000 </r>
       <r>    2.1542    1.0000 </r>
       <r>    2.1543    1.0000 </r>
       <r>    2.1544    1.0000 </r>
       <r>    2.1544    1.0000 </r>
       <r>    2.1545    1.0000 </r>
       <r>    2.1547    1.0000 </r>
       <r>    2.1547    1.0000 </r>
       <r>    2.1557    1.0000 </r>
       <r>    2.1575    1.0000 </r>
       <r>    2.1587    1.0000 </r>
       <r>    3.4951    1.0000 </r>
       <r>    3.4978    1.0000 </r>
       <r>    3.4995    1.0000 </r>
       <r>    3.4996    1.0000 </r>
       <r>    3.4996    1.0000 </r>
       <r>    3.5000    1.0000 </r>
       <r>    3.5000    1.0000 </r>
       <r>    3.5001    1.0000 </r>
       <r>    3.5002    1.0000 </r>
       <r>    3.5002    1.0000 </r>
       <r>    3.5002    1.0000 </r>
       <r>    3.5003    1.0000 </r>
       <r>    3.5004    1.0000 </r>
       <r>    3.5004    1.0000 </r>
       <r>    3.5004    1.0000 </r>
       <r>    3.5004    1.0000 </r>
       <r>    3.5005    1.0000 </r>
       <r>    3.5006    1.0000 </r>
       <r>    3.5006    1.0000 </r>
       <r>    3.5010    1.0000 </r>
       <r>    3.5010    1.0000 </r>
       <r>    3.5011    1.0000 </r>
       <r>    3.5029    1.0000 </r>
       <r>    3.5055    1.0000 </r>
       <r>    4.9401    1.0000 </r>
       <r>    4.9456    1.0000 </r>
       <r>    4.9458    1.0000 </r>
       <r>    4.9460    1.0000 </r>
       <r>    4.9461    1.0000 </r>
       <r>    4.9463    1.0000 </r>
       <r>    4.9463    1.0000 </r>
       <r>    4.9463    1.0000 </r>
       <r>    4.9464    1.0000 </r>
       <r>    4.9464    1.0000 </r>
       <r>    4.9465    1.0000 </r>
       <r>    4.9467    1.0000 </r>
       <r>    4.9468    1.0000 </r>
       <r>    4.9469    1.0000 </r>
       <r>    4.9472    1.0000 </r>
       <r>    4.9527    1.0000 </r>
       <r>    7.1246    0.0000 </r>
       <r>    7.1253    0.0000 </r>
       <r>    7.1295    0.0000 </r>
       <r>    7.1295    0.0000 </r>
       <r>    7.1296    0.0000 </r>
       <r>    7.1296    0.0000 </r>
       <r>    7.1297    0.0000 </r>
       <r>    7.1297    0.0000 </r>
       <r>    7.1298    0.0000 </r>
       <r>    7.1298    0.0000 </r>
       <r>    7.1299    0.0000 </r>
       <r>    7.1299    0.0000 </r>
       <r>    7.1300    0.0000 </r>
[...]
      </set>
     </set>
    </set>
   </array>
  </eigenvalues>
  <separator name="orbital magnetization" >
   <v name="MAGDIPOLOUT">      0.00000000      0.00000000      0.00000000</v>
  </separator>
  <dos>
   <i name="efermi">      5.81860101 </i>
   <total>
    <array>
     <dimension dim="1">gridpoints</dimension>
     <dimension dim="2">spin</dimension>
     <field>energy</field>
     <field>total</field>
     <field>integrated</field>
     <set>
      <set comment="spin 1">
       <r>    -6.9957     0.0000     0.0000 </r>
       <r>    -6.9393     0.0000     0.0000 </r>
       <r>    -6.8828     0.0000     0.0000 </r>
       <r>    -6.8264     0.0000     0.0000 </r>
       <r>    -6.7700     0.0000     0.0000 </r>
       <r>    -6.7136     0.0000     0.0000 </r>
       <r>    -6.6572     0.0000     0.0000 </r>
       <r>    -6.6008     0.0000     0.0000 </r>
       <r>    -6.5443     0.0000     0.0000 </r>
       <r>    -6.4879     0.0000     0.0000 </r>
       <r>    -6.4315     0.0000     0.0000 </r>
       <r>    -6.3751     0.0000     0.0000 </r>
       <r>    -6.3187     0.0000     0.0000 </r>
       <r>    -6.2622     0.0246     0.0014 </r>
       <r>    -6.2058     4.0811     0.2316 </r>
       <r>    -6.1494     0.3254     0.2500 </r>
       <r>    -6.0930     0.0000     0.2500 </r>
       <r>    -6.0366     0.0000     0.2500 </r>
       <r>    -5.9801     0.9126     0.3015 </r>
       <r>    -5.9237    25.2722     1.7273 </r>
       <r>    -5.8673     0.4017     1.7500 </r>
       <r>    -5.8109     0.0000     1.7500 </r>
       <r>    -5.7545     0.0001     1.7500 </r>
       <r>    -5.6980    12.4618     2.4531 </r>
       <r>    -5.6416    40.6815     4.7483 </r>
       <r>    -5.5852     0.0296     4.7500 </r>
       <r>    -5.5288     0.0000     4.7500 </r>
       <r>    -5.4724     0.0414     4.7523 </r>
       <r>    -5.4159    29.1778     6.3985 </r>
       <r>    -5.3595     6.2295     6.7500 </r>
       <r>    -5.3031     0.0000     6.7500 </r>
       <r>    -5.2467     0.0000     6.7500 </r>
       <r>    -5.1903     0.0395     6.7522 </r>
       <r>    -5.1338    22.3740     8.0146 </r>
       <r>    -5.0774     4.1730     8.2500 </r>
       <r>    -5.0210     0.0000     8.2500 </r>
       <r>    -4.9646     0.0004     8.2500 </r>
       <r>    -4.9082    33.1213    10.1187 </r>
       <r>    -4.8517    73.1976    14.2485 </r>
       <r>    -4.7953     0.0268    14.2500 </r>
       <r>    -4.7389     0.0003    14.2500 </r>
       <r>    -4.6825    29.8087    15.9318 </r>
       <r>    -4.6261    76.5001    20.2479 </r>
       <r>    -4.5696     0.0371    20.2500 </r>
       <r>    -4.5132     0.0000    20.2500 </r>
       <r>    -4.4568     0.0000    20.2500 </r>
       <r>    -4.4004     0.0000    20.2500 </r>
       <r>    -4.3440     0.0000    20.2500 </r>
       <r>    -4.2876     0.0000    20.2500 </r>
       <r>    -4.2311     0.0691    20.2539 </r>
       <r>    -4.1747    43.9876    22.7357 </r>
       <r>    -4.1183     9.1174    23.2501 </r>
       <r>    -4.0619    40.4734    25.5335 </r>
       <r>    -4.0055    65.8588    29.2493 </r>
       <r>    -3.9490     0.0157    29.2502 </r>
       <r>    -3.8926    11.4312    29.8951 </r>
       <r>    -3.8362    22.4601    31.1623 </r>
       <r>    -3.7798    10.4166    31.7500 </r>
       <r>    -3.7234     0.0003    31.7500 </r>
       <r>    -3.6669     3.8306    31.9661 </r>
       <r>    -3.6105   100.9231    37.6602 </r>
       <r>    -3.5541     1.9701    37.7713 </r>
       <r>    -3.4977    94.4308    43.0991 </r>
       <r>    -3.4413    11.5376    43.7500 </r>
       <r>    -3.3848     5.4383    44.0568 </r>
       <r>    -3.3284    99.8775    49.6919 </r>
       <r>    -3.2720     1.0304    49.7500 </r>
       <r>    -3.2156     0.0000    49.7500 </r>
       <r>    -3.1592     0.1534    49.7587 </r>
       <r>    -3.1027    89.0475    54.7827 </r>
       <r>    -3.0463    17.1452    55.7500 </r>
       <r>    -2.9899     0.0000    55.7500 </r>
       <r>    -2.9335     0.0000    55.7500 </r>
       <r>    -2.8771     0.0000    55.7500 </r>
       <r>    -2.8206     0.0000    55.7500 </r>
       <r>    -2.7642     0.0000    55.7500 </r>
       <r>    -2.7078     0.0000    55.7500 </r>
       <r>    -2.6514     0.0000    55.7500 </r>
       <r>    -2.5950     0.0000    55.7500 </r>
       <r>    -2.5385     0.4403    55.7748 </r>
       <r>    -2.4821    49.7170    58.5799 </r>
       <r>    -2.4257     3.0158    58.7500 </r>
       <r>    -2.3693     0.0000    58.7500 </r>
       <r>    -2.3129     0.0000    58.7500 </r>
       <r>    -2.2564     0.0000    58.7500 </r>
       <r>    -2.2000     0.0000    58.7500 </r>
       <r>    -2.1436     0.0116    58.7507 </r>
       <r>    -2.0872    19.6734    59.8606 </r>
       <r>    -2.0308    25.0064    61.2715 </r>
       <r>    -1.9743    88.1559    66.2452 </r>
       <r>    -1.9179    42.7696    68.6582 </r>
       <r>    -1.8615    10.4887    69.2500 </r>
       <r>    -1.8051     0.0000    69.2500 </r>
       <r>    -1.7487     0.0000    69.2500 </r>
       <r>    -1.6923     0.0000    69.2500 </r>
       <r>    -1.6358     0.0000    69.2500 </r>
       <r>    -1.5794     0.0000    69.2500 </r>
       <r>    -1.5230     9.0056    69.7581 </r>
       <r>    -1.4666    44.1013    72.2463 </r>
       <r>    -1.4102     0.0661    72.2500 </r>
       <r>    -1.3537     0.0000    72.2500 </r>
       <r>    -1.2973     0.4434    72.2750 </r>
       <r>    -1.2409    16.8975    73.2284 </r>
       <r>    -1.1845     0.3834    73.2500 </r>
       <r>    -1.1281     0.0367    73.2521 </r>
       <r>    -1.0716    76.2987    77.5568 </r>
       <r>    -1.0152    30.0104    79.2500 </r>
       <r>    -0.9588     0.0003    79.2500 </r>
       <r>    -0.9024     0.0315    79.2518 </r>
       <r>    -0.8460    74.7379    83.4685 </r>
       <r>    -0.7895    31.5764    85.2500 </r>
       <r>    -0.7331     0.0040    85.2502 </r>
       <r>    -0.6767    89.0844    90.2763 </r>
       <r>    -0.6203   123.5827    97.2488 </r>
       <r>    -0.5639     0.0215    97.2500 </r>
       <r>    -0.5074     0.0000    97.2500 </r>
       <r>    -0.4510     0.0000    97.2500 </r>
       <r>    -0.3946     0.0000    97.2500 </r>
       <r>    -0.3382     0.0000    97.2500 </r>
       <r>    -0.2818     1.4094    97.3295 </r>
       <r>    -0.2253   100.6897   103.0104 </r>
       <r>    -0.1689     4.2470   103.2500 </r>
       <r>    -0.1125     0.0000   103.2500 </r>
       <r>    -0.0561     1.3391   103.3255 </r>
       <r>     0.0003    24.9955   104.7358 </r>
       <r>     0.0568     0.2519   104.7500 </r>
       <r>     0.1132     0.0000   104.7500 </r>
       <r>     0.1696     0.0010   104.7501 </r>
       <r>     0.2260    23.2121   106.0597 </r>
       <r>     0.2824    29.9562   107.7498 </r>
       <r>     0.3389     0.0038   107.7500 </r>
       <r>     0.3953     7.0793   108.1494 </r>
       <r>     0.4517    98.5529   113.7097 </r>
       <r>     0.5081     0.7139   113.7500 </r>
       <r>     0.5645     0.0000   113.7500 </r>
       <r>     0.6210     0.0000   113.7500 </r>
       <r>     0.6774     0.0000   113.7500 </r>
       <r>     0.7338     0.0000   113.7500 </r>
       <r>     0.7902     0.0000   113.7500 </r>
       <r>     0.8466     0.0000   113.7500 </r>
       <r>     0.9030     0.0000   113.7500 </r>
       <r>     0.9595     0.0000   113.7500 </r>
       <r>     1.0159     0.0000   113.7500 </r>
       <r>     1.0723     0.0000   113.7500 </r>
       <r>     1.1287     0.0000   113.7500 </r>
       <r>     1.1851     0.0000   113.7500 </r>
       <r>     1.2416     0.0000   113.7500 </r>
       <r>     1.2980     0.0000   113.7500 </r>
       <r>     1.3544     1.3328   113.8252 </r>
       <r>     1.4108    92.4666   119.0421 </r>
       <r>     1.4672   147.1594   127.3448 </r>
       <r>     1.5237    24.9064   128.7500 </r>
       <r>     1.5801     0.0001   128.7500 </r>
       <r>     1.6365     0.0000   128.7500 </r>
       <r>     1.6929     0.0000   128.7500 </r>
       <r>     1.7493     2.8301   128.9097 </r>
       <r>     1.8058    33.8139   130.8174 </r>
       <r>     1.8622    50.8632   133.6871 </r>
       <r>     1.9186     9.5226   134.2244 </r>
       <r>     1.9750    44.6871   136.7456 </r>
       <r>     2.0314     0.0779   136.7500 </r>
       <r>     2.0879     0.0002   136.7500 </r>
       <r>     2.1443    26.1001   138.2226 </r>
       <r>     2.2007   103.5798   144.0665 </r>
       <r>     2.2571   107.3613   150.1238 </r>
       <r>     2.3135   122.9777   157.0621 </r>
       <r>     2.3700    91.7539   162.2388 </r>
       <r>     2.4264     0.1980   162.2500 </r>
       <r>     2.4828     0.0000   162.2500 </r>
       <r>     2.5392     0.0000   162.2500 </r>
       <r>     2.5956     0.0000   162.2500 </r>
       <r>     2.6521     0.0000   162.2500 </r>
       <r>     2.7085     0.0000   162.2500 </r>
       <r>     2.7649     0.0000   162.2500 </r>
       <r>     2.8213     0.3126   162.2676 </r>
       <r>     2.8777    25.1444   163.6863 </r>
       <r>     2.9342    46.9627   166.3359 </r>
       <r>     2.9906   150.6092   174.8332 </r>
       <r>     3.0470    68.9342   178.7224 </r>
       <r>     3.1034    65.2300   182.4027 </r>
       <r>     3.1598    94.7452   187.7481 </r>
       <r>     3.2162    14.2202   188.5504 </r>
       <r>     3.2727   107.3824   194.6089 </r>
       <r>     3.3291    37.9336   196.7491 </r>
       <r>     3.3855     0.0159   196.7500 </r>
       <r>     3.4419     0.0022   196.7501 </r>
       <r>     3.4983    47.5359   199.4321 </r>
       <r>     3.5548   149.2206   207.8510 </r>
       <r>     3.6112    15.9335   208.7500 </r>
       <r>     3.6676     0.0000   208.7500 </r>
       <r>     3.7240     0.0000   208.7500 </r>
       <r>     3.7804     0.5403   208.7805 </r>
       <r>     3.8369    55.5577   211.9150 </r>
       <r>     3.8933   102.4309   217.6941 </r>
       <r>     3.9497     0.9903   217.7500 </r>
       <r>     4.0061     0.0009   217.7501 </r>
       <r>     4.0625    23.2893   219.0640 </r>
       <r>     4.1190    84.9668   223.8578 </r>
       <r>     4.1754    51.2591   226.7498 </r>
       <r>     4.2318     0.1483   226.7582 </r>
       <r>     4.2882    88.7351   231.7646 </r>
       <r>     4.3446    21.0658   232.9531 </r>
       <r>     4.4011    73.2082   237.0835 </r>
       <r>     4.4575    94.8639   242.4357 </r>
       <r>     4.5139    35.8627   244.4590 </r>
       <r>     4.5703    14.0193   245.2500 </r>
       <r>     4.6267     0.0004   245.2500 </r>
       <r>     4.6832     0.0000   245.2500 </r>
       <r>     4.7396     0.0000   245.2500 </r>
       <r>     4.7960     0.0000   245.2500 </r>
       <r>     4.8524     0.0601   245.2534 </r>
       <r>     4.9088    43.9975   247.7357 </r>
       <r>     4.9653    73.3750   251.8755 </r>
       <r>     5.0217     6.6379   252.2500 </r>
       <r>     5.0781     0.0000   252.2500 </r>
       <r>     5.1345     0.0000   252.2500 </r>
       <r>     5.1909     0.0000   252.2500 </r>
       <r>     5.2474     0.0000   252.2500 </r>
       <r>     5.3038     0.0000   252.2500 </r>
       <r>     5.3602     0.0026   252.2501 </r>
       <r>     5.4166    28.1669   253.8393 </r>
       <r>     5.4730    25.0022   255.2499 </r>
       <r>     5.5295     0.0014   255.2500 </r>
       <r>     5.5859     0.0000   255.2500 </r>
       <r>     5.6423     0.0000   255.2500 </r>
       <r>     5.6987     3.8542   255.4675 </r>
       <r>     5.7551     9.4349   255.9998 </r>
       <r>     5.8115     0.0041   256.0000 </r>
       <r>     5.8680     0.0000   256.0000 </r>
       <r>     5.9244     0.0000   256.0000 </r>
       <r>     5.9808     0.0000   256.0000 </r>
       <r>     6.0372     0.0000   256.0000 </r>
       <r>     6.0936     0.0000   256.0000 </r>
       <r>     6.1501     0.0000   256.0000 </r>
       <r>     6.2065     2.8511   256.1609 </r>
       <r>     6.2629    23.6607   257.4958 </r>
       <r>     6.3193    17.8979   258.5056 </r>
       <r>     6.3757     8.7633   259.0000 </r>
       <r>     6.4322     0.0001   259.0000 </r>
       <r>     6.4886     0.0000   259.0000 </r>
       <r>     6.5450     0.0000   259.0000 </r>
       <r>     6.6014     0.0000   259.0000 </r>
       <r>     6.6578     0.0000   259.0000 </r>
       <r>     6.7143     0.1990   259.0112 </r>
       <r>     6.7707    24.9231   260.4174 </r>
       <r>     6.8271    48.8821   263.1753 </r>
       <r>     6.8835     5.7554   263.5000 </r>
       <r>     6.9399     0.0000   263.5000 </r>
       <r>     6.9964     0.0000   263.5000 </r>
       <r>     7.0528     0.0000   263.5000 </r>
       <r>     7.1092     8.3507   263.9711 </r>
       <r>     7.1656   139.7007   271.8530 </r>
       <r>     7.2220     2.6056   272.0000 </r>
       <r>     7.2785     0.0000   272.0000 </r>
       <r>     7.3349     0.0000   272.0000 </r>
       <r>     7.3913     0.0000   272.0000 </r>
       <r>     7.4477     0.0000   272.0000 </r>
       <r>     7.5041     0.0003   272.0000 </r>
       <r>     7.5606    35.4503   274.0001 </r>
       <r>     7.6170   178.5135   284.0718 </r>
       <r>     7.6734    59.3553   287.4206 </r>
       <r>     7.7298     1.4080   287.5000 </r>
       <r>     7.7862     0.0000   287.5000 </r>
       <r>     7.8427     3.4810   287.6964 </r>
       <r>     7.8991   101.1336   293.4023 </r>
       <r>     7.9555     6.9956   293.7970 </r>
       <r>     8.0119   100.0406   299.4412 </r>
       <r>     8.0683    53.0965   302.4369 </r>
       <r>     8.1247   107.4037   308.4966 </r>
       <r>     8.1812     0.0935   308.5019 </r>
       <r>     8.2376    25.8029   309.9577 </r>
       <r>     8.2940    93.5849   315.2377 </r>
       <r>     8.3504     0.2185   315.2500 </r>
       <r>     8.4068     0.0000   315.2500 </r>
       <r>     8.4633     2.7357   315.4043 </r>
       <r>     8.5197    49.9452   318.2222 </r>
       <r>     8.5761     0.4922   318.2500 </r>
       <r>     8.6325     0.0121   318.2507 </r>
       <r>     8.6889    38.2476   320.4086 </r>
       <r>     8.7454    51.9369   323.3389 </r>
       <r>     8.8018     2.8563   323.5000 </r>
       <r>     8.8582     0.0000   323.5000 </r>
       <r>     8.9146     0.0000   323.5000 </r>
       <r>     8.9710     0.0000   323.5000 </r>
       <r>     9.0275     0.0000   323.5000 </r>
       <r>     9.0839     0.0000   323.5000 </r>
       <r>     9.1403     0.6878   323.5388 </r>
       <r>     9.1967     8.1288   323.9974 </r>
       <r>     9.2531     0.0455   324.0000 </r>
       <r>     9.3096     0.0000   324.0000 </r>
       <r>     9.3660     0.0000   324.0000 </r>
       <r>     9.4224     0.0000   324.0000 </r>
       <r>     9.4788     0.0000   324.0000 </r>
       <r>     9.5352     0.0000   324.0000 </r>
       <r>     9.5917     0.0000   324.0000 </r>
       <r>     9.6481     0.0000   324.0000 </r>
       <r>     9.7045     0.0000   324.0000 </r>
       <r>     9.7609     0.0000   324.0000 </r>
       <r>     9.8173     0.0000   324.0000 </r>
       <r>     9.8738     0.0000   324.0000 </r>
       <r>     9.9302     0.0000   324.0000 </r>
      </set>
     </set>
    </array>
   </total>
  </dos>
 </calculation>
 <structure name="finalpos" >
  <crystal>
   <varray name="basis" >
    <v>      10.89268312       0.00000000       0.00000000 </v>
    <v>       0.00000000      10.89268312       0.00000000 </v>
    <v>       0.00000000       0.00000000      10.89268312 </v>
   </varray>
   <i name="volume">   1292.42279472 </i>
   <varray name="rec_basis" >
    <v>       0.09180475       0.00000000       0.00000000 </v>
    <v>       0.00000000       0.09180475       0.00000000 </v>
    <v>       0.00000000       0.00000000       0.09180475 </v>
   </varray>
  </crystal>
  <varray name="positions" >
   <v>       0.25091805       0.25000000       0.25000000 </v>
   <v>       0.37500000       0.37500000       0.37500000 </v>
   <v>       0.00000000       0.00000000       0.25000000 </v>
   <v>       0.12500000       0.12500000       0.37500000 </v>
   <v>       0.00000000       0.25000000       0.00000000 </v>
   <v>       0.12500000       0.37500000       0.12500000 </v>
   <v>       0.25000000       0.00000000       0.00000000 </v>
   <v>       0.37500000       0.12500000       0.12500000 </v>
   <v>       0.25000000       0.25000000       0.75000000 </v>
   <v>       0.37500000       0.37500000       0.87500000 </v>
   <v>       0.00000000       0.00000000       0.75000000 </v>
   <v>       0.12500000       0.12500000       0.87500000 </v>
   <v>       0.00000000       0.25000000       0.50000000 </v>
   <v>       0.12500000       0.37500000       0.62500000 </v>
   <v>       0.25000000       0.00000000       0.50000000 </v>
   <v>       0.37500000       0.12500000       0.62500000 </v>
   <v>       0.25000000       0.75000000       0.25000000 </v>
   <v>       0.37500000       0.87500000       0.37500000 </v>
   <v>       0.00000000       0.50000000       0.25000000 </v>
   <v>       0.12500000       0.62500000       0.37500000 </v>
   <v>       0.00000000       0.75000000       0.00000000 </v>
   <v>       0.12500000       0.87500000       0.12500000 </v>
   <v>       0.25000000       0.50000000       0.00000000 </v>
   <v>       0.37500000       0.62500000       0.12500000 </v>
   <v>       0.25000000       0.75000000       0.75000000 </v>
   <v>       0.37500000       0.87500000       0.87500000 </v>
   <v>       0.00000000       0.50000000       0.75000000 </v>
   <v>       0.12500000       0.62500000       0.87500000 </v>
   <v>       0.00000000       0.75000000       0.50000000 </v>
   <v>       0.12500000       0.87500000       0.62500000 </v>
   <v>       0.25000000       0.50000000       0.50000000 </v>
   <v>       0.37500000       0.62500000       0.62500000 </v>
   <v>       0.75000000       0.25000000       0.25000000 </v>
   <v>       0.87500000       0.37500000       0.37500000 </v>
   <v>       0.50000000       0.00000000       0.25000000 </v>
   <v>       0.62500000       0.12500000       0.37500000 </v>
   <v>       0.50000000       0.25000000       0.00000000 </v>
   <v>       0.62500000       0.37500000       0.12500000 </v>
   <v>       0.75000000       0.00000000       0.00000000 </v>
   <v>       0.87500000       0.12500000       0.12500000 </v>
   <v>       0.75000000       0.25000000       0.75000000 </v>
   <v>       0.87500000       0.37500000       0.87500000 </v>
   <v>       0.50000000       0.00000000       0.75000000 </v>
   <v>       0.62500000       0.12500000       0.87500000 </v>
   <v>       0.50000000       0.25000000       0.50000000 </v>
   <v>       0.62500000       0.37500000       0.62500000 </v>
   <v>       0.75000000       0.00000000       0.50000000 </v>
   <v>       0.87500000       0.12500000       0.62500000 </v>
   <v>       0.75000000       0.75000000       0.25000000 </v>
   <v>       0.87500000       0.87500000       0.37500000 </v>
   <v>       0.50000000       0.50000000       0.25000000 </v>
   <v>       0.62500000       0.62500000       0.37500000 </v>
   <v>       0.50000000       0.75000000       0.00000000 </v>
   <v>       0.62500000       0.87500000       0.12500000 </v>
   <v>       0.75000000       0.50000000       0.00000000 </v>
   <v>       0.87500000       0.62500000       0.12500000 </v>
   <v>       0.75000000       0.75000000       0.75000000 </v>
   <v>       0.87500000       0.87500000       0.87500000 </v>
   <v>       0.50000000       0.50000000       0.75000000 </v>
   <v>       0.62500000       0.62500000       0.87500000 </v>
   <v>       0.50000000       0.75000000       0.50000000 </v>
   <v>       0.62500000       0.87500000       0.62500000 </v>
   <v>       0.75000000       0.50000000       0.50000000 </v>
   <v>       0.87500000       0.62500000       0.62500000 </v>
  </varray>
 </structure>
</modeling>
