  64  64   0   0
  0.2006348E+02  0.1086915E-08  0.1086915E-08  0.1086915E-08  0.5000000E-15
  1.000000000000000E-004
  CAR 
 unknown system                          
     10.10066373     -6.98200108  301      5.89405752      1.00000000
     -6.982  0.0000E+00  0.0000E+00
     -6.925  0.0000E+00  0.0000E+00
     -6.868  0.0000E+00  0.0000E+00
     -6.811  0.0000E+00  0.0000E+00
     -6.754  0.0000E+00  0.0000E+00
     -6.697  0.0000E+00  0.0000E+00
     -6.640  0.0000E+00  0.0000E+00
     -6.583  0.0000E+00  0.0000E+00
     -6.526  0.0000E+00  0.0000E+00
     -6.470  0.0000E+00  0.0000E+00
     -6.413  0.0000E+00  0.0000E+00
     -6.356  0.0000E+00  0.0000E+00
     -6.299  0.9741E-10  0.5546E-11
     -6.242  0.2283E-01  0.1300E-02
     -6.185  0.4053E+01  0.2321E+00
     -6.128  0.3142E+00  0.2500E+00
     -6.071  0.8795E-07  0.2500E+00
     -6.014  0.9224E-07  0.2500E+00
     -5.957  0.1016E+01  0.3079E+00
     -5.900  0.2501E+02  0.1732E+01
     -5.843  0.3172E+00  0.1750E+01
     -5.786  0.4486E-08  0.1750E+01
     -5.729  0.1054E-03  0.1750E+01
     -5.672  0.1456E+02  0.2579E+01
     -5.615  0.3810E+02  0.4749E+01
     -5.558  0.1628E-01  0.4750E+01
     -5.502  0.1093E-09  0.4750E+01
     -5.445  0.7225E-01  0.4754E+01
     -5.388  0.3053E+02  0.6493E+01
     -5.331  0.4519E+01  0.6750E+01
     -5.274  0.5029E-05  0.6750E+01
     -5.217  0.2352E-09  0.6750E+01
     -5.160  0.8742E-01  0.6755E+01
     -5.103  0.2367E+02  0.8103E+01
     -5.046  0.2587E+01  0.8250E+01
     -4.989  0.1546E-05  0.8250E+01
     -4.932  0.1688E-02  0.8250E+01
     -4.875  0.4563E+02  0.1085E+02
     -4.818  0.5973E+02  0.1425E+02
     -4.761  0.6928E-02  0.1425E+02
     -4.704  0.1251E-02  0.1425E+02
     -4.647  0.4323E+02  0.1671E+02
     -4.590  0.6213E+02  0.2025E+02
     -4.533  0.8613E-02  0.2025E+02
     -4.477  0.0000E+00  0.2025E+02
     -4.420  0.0000E+00  0.2025E+02
     -4.363  0.0000E+00  0.2025E+02
     -4.306  0.0000E+00  0.2025E+02
     -4.249  0.1634E-08  0.2025E+02
     -4.192  0.2698E+00  0.2027E+02
     -4.135  0.4822E+02  0.2301E+02
     -4.078  0.4203E+01  0.2325E+02
     -4.021  0.5769E+02  0.2654E+02
     -3.964  0.4767E+02  0.2925E+02
     -3.907  0.1140E-01  0.2925E+02
     -3.850  0.1352E+02  0.3002E+02
     -3.793  0.2535E+02  0.3146E+02
     -3.736  0.5016E+01  0.3175E+02
     -3.679  0.2439E-04  0.3175E+02
     -3.622  0.1225E+02  0.3245E+02
     -3.565  0.9285E+02  0.3773E+02
     -3.509  0.2092E+01  0.3785E+02
     -3.452  0.9979E+02  0.4354E+02
     -3.395  0.3765E+01  0.4375E+02
     -3.338  0.1366E+02  0.4453E+02
     -3.281  0.9149E+02  0.4974E+02
     -3.224  0.2188E+00  0.4975E+02
     -3.167  0.1296E-07  0.4975E+02
     -3.110  0.9948E+00  0.4981E+02
     -3.053  0.9904E+02  0.5545E+02
     -2.996  0.5335E+01  0.5575E+02
     -2.939  0.9692E-06  0.5575E+02
     -2.882  0.0000E+00  0.5575E+02
     -2.825  0.0000E+00  0.5575E+02
     -2.768  0.0000E+00  0.5575E+02
     -2.711  0.0000E+00  0.5575E+02
     -2.654  0.0000E+00  0.5575E+02
     -2.597  0.0000E+00  0.5575E+02
     -2.541  0.3568E-06  0.5575E+02
     -2.484  0.2480E+01  0.5589E+02
     -2.427  0.4968E+02  0.5872E+02
     -2.370  0.5210E+00  0.5875E+02
     -2.313  0.6201E-08  0.5875E+02
     -2.256  0.0000E+00  0.5875E+02
     -2.199  0.0000E+00  0.5875E+02
     -2.142  0.3645E-08  0.5875E+02
     -2.085  0.2717E+00  0.5877E+02
     -2.028  0.2485E+02  0.6018E+02
     -1.971  0.5504E+02  0.6331E+02
     -1.914  0.5231E+02  0.6629E+02
     -1.857  0.4991E+02  0.6914E+02
     -1.800  0.2014E+01  0.6925E+02
     -1.743  0.2700E-06  0.6925E+02
     -1.686  0.0000E+00  0.6925E+02
     -1.629  0.0000E+00  0.6925E+02
     -1.572  0.2832E-12  0.6925E+02
     -1.516  0.5223E-02  0.6925E+02
     -1.459  0.3228E+02  0.7109E+02
     -1.402  0.2040E+02  0.7225E+02
     -1.345  0.4620E-03  0.7225E+02
     -1.288  0.1629E-02  0.7225E+02
     -1.231  0.1066E+02  0.7286E+02
     -1.174  0.6903E+01  0.7325E+02
     -1.117  0.1656E-03  0.7325E+02
     -1.060  0.6811E+01  0.7364E+02
     -1.003  0.9785E+02  0.7921E+02
     -0.946  0.7119E+00  0.7925E+02
     -0.889  0.9501E-07  0.7925E+02
     -0.832  0.2162E+01  0.7937E+02
     -0.775  0.1004E+03  0.8509E+02
     -0.718  0.2769E+01  0.8525E+02
     -0.661  0.3474E+01  0.8545E+02
     -0.604  0.1964E+03  0.9663E+02
     -0.548  0.1086E+02  0.9725E+02
     -0.491  0.6810E-05  0.9725E+02
     -0.434  0.0000E+00  0.9725E+02
     -0.377  0.0000E+00  0.9725E+02
     -0.320  0.0000E+00  0.9725E+02
     -0.263  0.1197E-03  0.9725E+02
     -0.206  0.2408E+02  0.9862E+02
     -0.149  0.8122E+02  0.1032E+03
     -0.092  0.6261E-01  0.1032E+03
     -0.035  0.5026E-03  0.1033E+03
      0.022  0.1217E+02  0.1039E+03
      0.079  0.1417E+02  0.1047E+03
      0.136  0.1129E-02  0.1048E+03
      0.193  0.1226E-07  0.1048E+03
      0.250  0.6375E+00  0.1048E+03
      0.307  0.4980E+02  0.1076E+03
      0.364  0.2243E+01  0.1077E+03
      0.420  0.9453E-01  0.1078E+03
      0.477  0.8513E+02  0.1126E+03
      0.534  0.2015E+02  0.1137E+03
      0.591  0.5868E-04  0.1138E+03
      0.648  0.0000E+00  0.1138E+03
      0.705  0.0000E+00  0.1138E+03
      0.762  0.0000E+00  0.1138E+03
      0.819  0.0000E+00  0.1138E+03
      0.876  0.0000E+00  0.1138E+03
      0.933  0.0000E+00  0.1138E+03
      0.990  0.0000E+00  0.1138E+03
      1.047  0.0000E+00  0.1138E+03
      1.104  0.0000E+00  0.1138E+03
      1.161  0.0000E+00  0.1138E+03
      1.218  0.0000E+00  0.1138E+03
      1.275  0.0000E+00  0.1138E+03
      1.332  0.4194E-07  0.1138E+03
      1.389  0.1161E+01  0.1138E+03
      1.445  0.5272E+02  0.1168E+03
      1.502  0.1792E+03  0.1270E+03
      1.559  0.3035E+02  0.1287E+03
      1.616  0.1809E-03  0.1288E+03
      1.673  0.0000E+00  0.1288E+03
      1.730  0.1468E-08  0.1288E+03
      1.787  0.2204E+00  0.1288E+03
      1.844  0.3404E+02  0.1307E+03
      1.901  0.5261E+02  0.1337E+03
      1.958  0.8298E+01  0.1342E+03
      2.015  0.4524E+02  0.1367E+03
      2.072  0.9139E-01  0.1367E+03
      2.129  0.6737E-04  0.1368E+03
      2.186  0.1986E+02  0.1379E+03
      2.243  0.9258E+02  0.1432E+03
      2.300  0.1144E+03  0.1497E+03
      2.357  0.1295E+03  0.1570E+03
      2.413  0.9136E+02  0.1622E+03
      2.470  0.1892E+00  0.1622E+03
      2.527  0.2223E-09  0.1622E+03
      2.584  0.0000E+00  0.1622E+03
      2.641  0.0000E+00  0.1622E+03
      2.698  0.0000E+00  0.1622E+03
      2.755  0.0000E+00  0.1622E+03
      2.812  0.3201E-08  0.1623E+03
      2.869  0.2750E+00  0.1623E+03
      2.926  0.2492E+02  0.1637E+03
      2.983  0.5309E+02  0.1667E+03
      3.040  0.1438E+03  0.1749E+03
      3.097  0.6356E+02  0.1785E+03
      3.154  0.7549E+02  0.1828E+03
      3.211  0.8670E+02  0.1877E+03
      3.268  0.1063E+02  0.1884E+03
      3.325  0.1110E+03  0.1947E+03
      3.381  0.3646E+02  0.1967E+03
      3.438  0.1079E-01  0.1967E+03
      3.495  0.3661E-02  0.1968E+03
      3.552  0.5254E+02  0.1997E+03
      3.609  0.1476E+03  0.2081E+03
      3.666  0.1062E+02  0.2087E+03
      3.723  0.6569E-05  0.2088E+03
      3.780  0.3451E-07  0.2088E+03
      3.837  0.9959E+00  0.2088E+03
      3.894  0.5487E+02  0.2119E+03
      3.951  0.1010E+03  0.2177E+03
      4.008  0.1148E+01  0.2177E+03
      4.065  0.3937E-02  0.2178E+03
      4.122  0.3121E+02  0.2195E+03
      4.179  0.8729E+02  0.2245E+03
      4.236  0.3956E+02  0.2267E+03
      4.293  0.3121E+00  0.2268E+03
      4.349  0.9376E+02  0.2321E+03
      4.406  0.1297E+02  0.2328E+03
      4.463  0.7567E+02  0.2372E+03
      4.520  0.9787E+02  0.2427E+03
      4.577  0.3370E+02  0.2446E+03
      4.634  0.1060E+02  0.2452E+03
      4.691  0.1147E-03  0.2452E+03
      4.748  0.0000E+00  0.2452E+03
      4.805  0.0000E+00  0.2452E+03
      4.862  0.1407E-08  0.2453E+03
      4.919  0.2804E+00  0.2453E+03
      4.976  0.4955E+02  0.2481E+03
      5.033  0.7021E+02  0.2521E+03
      5.090  0.2893E+01  0.2522E+03
      5.147  0.5263E-06  0.2522E+03
      5.204  0.0000E+00  0.2522E+03
      5.261  0.0000E+00  0.2522E+03
      5.318  0.0000E+00  0.2522E+03
      5.374  0.3011E-11  0.2523E+03
      5.431  0.1609E-01  0.2523E+03
      5.488  0.3766E+02  0.2544E+03
      5.545  0.1501E+02  0.2552E+03
      5.602  0.1323E-03  0.2552E+03
      5.659  0.1535E-13  0.2552E+03
      5.716  0.5815E-03  0.2553E+03
      5.773  0.6987E+01  0.2556E+03
      5.830  0.6183E+01  0.2560E+03
      5.887  0.3042E-03  0.2560E+03
      5.944  0.0000E+00  0.2560E+03
      6.001  0.0000E+00  0.2560E+03
      6.058  0.0000E+00  0.2560E+03
      6.115  0.0000E+00  0.2560E+03
      6.172  0.2964E-12  0.2560E+03
      6.229  0.3998E-02  0.2560E+03
      6.286  0.1737E+02  0.2570E+03
      6.342  0.1031E+02  0.2576E+03
      6.399  0.2477E+02  0.2590E+03
      6.456  0.2351E+00  0.2590E+03
      6.513  0.2375E-08  0.2590E+03
      6.570  0.0000E+00  0.2590E+03
      6.627  0.0000E+00  0.2590E+03
      6.684  0.0000E+00  0.2590E+03
      6.741  0.3358E-04  0.2590E+03
      6.798  0.6328E+01  0.2594E+03
      6.855  0.3171E+02  0.2612E+03
      6.912  0.4096E+02  0.2635E+03
      6.969  0.3014E-01  0.2635E+03
      7.026  0.6538E-11  0.2635E+03
      7.083  0.1606E-10  0.2635E+03
      7.140  0.3894E-01  0.2635E+03
      7.197  0.8970E+02  0.2686E+03
      7.254  0.5841E+02  0.2719E+03
      7.310  0.1118E+01  0.2720E+03
      7.367  0.2502E-06  0.2720E+03
      7.424  0.0000E+00  0.2720E+03
      7.481  0.0000E+00  0.2720E+03
      7.538  0.2774E-08  0.2720E+03
      7.595  0.5719E+00  0.2720E+03
      7.652  0.1677E+03  0.2816E+03
      7.709  0.5595E+02  0.2848E+03
      7.766  0.4790E+02  0.2875E+03
      7.823  0.9126E-01  0.2875E+03
      7.880  0.1249E-02  0.2875E+03
      7.937  0.4348E+02  0.2900E+03
      7.994  0.6188E+02  0.2935E+03
      8.051  0.2785E+02  0.2951E+03
      8.108  0.7879E+02  0.2996E+03
      8.165  0.1456E+03  0.3079E+03
      8.222  0.1122E+02  0.3085E+03
      8.279  0.3560E+01  0.3087E+03
      8.335  0.1069E+03  0.3148E+03
      8.392  0.8074E+01  0.3152E+03
      8.449  0.2810E-05  0.3153E+03
      8.506  0.5554E-01  0.3153E+03
      8.563  0.8094E+02  0.3199E+03
      8.620  0.2438E+02  0.3212E+03
      8.677  0.1101E-03  0.3213E+03
      8.734  0.7244E+00  0.3213E+03
      8.791  0.1215E+03  0.3282E+03
      8.848  0.6202E+02  0.3317E+03
      8.905  0.1327E+00  0.3317E+03
      8.962  0.3625E-08  0.3318E+03
      9.019  0.1624E+00  0.3318E+03
      9.076  0.1250E+02  0.3325E+03
      9.133  0.5070E+00  0.3325E+03
      9.190  0.7479E-01  0.3325E+03
      9.247  0.3053E+02  0.3342E+03
      9.303  0.7077E+01  0.3346E+03
      9.360  0.2369E+02  0.3360E+03
      9.417  0.9265E-01  0.3360E+03
      9.474  0.2872E-09  0.3360E+03
      9.531  0.0000E+00  0.3360E+03
      9.588  0.0000E+00  0.3360E+03
      9.645  0.0000E+00  0.3360E+03
      9.702  0.0000E+00  0.3360E+03
      9.759  0.0000E+00  0.3360E+03
      9.816  0.0000E+00  0.3360E+03
      9.873  0.0000E+00  0.3360E+03
      9.930  0.0000E+00  0.3360E+03
      9.987  0.0000E+00  0.3360E+03
     10.044  0.0000E+00  0.3360E+03
     10.101  0.0000E+00  0.3360E+03
