 vasp.6.3.2 27Jun22 (build Oct 14 2022 12:13:54) complex                        
  
 executed on             LinuxIFC date 2023.04.03  14:39:53
 running on   32 total cores
 distrk:  each k-point on   32 cores,    1 groups
 distr:  one band on NCORE=   4 cores,    8 groups


--------------------------------------------------------------------------------------------------------


 INCAR:
   ADDGRID = True
   EDIFF = 1e-08
   ENCUT = 318
   GGA = Ps
   IALGO = 38
   IBRION = -1
   ISMEAR = 0
   LCHARG = False
   LREAL = False
   LWAVE = False
   NELMIN = 5
   NPAR = 8
   PREC = Accurate
   SIGMA = 0.02

 POTCAR:    PAW_PBE Si 05Jan2001                  
 POTCAR:    PAW_PBE Si 05Jan2001                  
   SHA256 =  79d9987ad8750f624c4d6acb2a16d13abf6a777132adc04dc6c8399be72b42bb Si/POTCAR             
   COPYR  = (c) Copyright 05Jan2001 Georg Kresse                                                    
   COPYR  = This file is part of the software VASP. Any use, copying, and all other rights are regul
   COPYR  = If you do not have a valid VASP license, you may not use, copy or distribute this file. 
   VRHFIN =Si: s2p2                                                                                 
   LEXCH  = PE                                                                                      
   EATOM  =   103.0669 eV,    7.5752 Ry                                                             
                                                                                                    
   TITEL  = PAW_PBE Si 05Jan2001                                                                    
   LULTRA =        F    use ultrasoft PP ?                                                          
   IUNSCR =        1    unscreen: 0-lin 1-nonlin 2-no                                               
   RPACOR =    1.500    partial core radius                                                         
   POMASS =   28.085; ZVAL   =    4.000    mass and valenz                                          
   RCORE  =    1.900    outmost cutoff radius                                                       
   RWIGS  =    2.480; RWIGS  =    1.312    wigner-seitz radius (au A)                               
   ENMAX  =  245.345; ENMIN  =  184.009 eV                                                          
   ICORE  =        2    local potential                                                             
   LCOR   =        T    correct aug charges                                                         
   LPAW   =        T    paw PP                                                                      
   EAUG   =  322.069                                                                                
   DEXC   =    0.000                                                                                
   RMAX   =    1.950    core radius for proj-oper                                                   
   RAUG   =    1.300    factor for augmentation sphere                                              
   RDEP   =    1.993    radius for radial grids                                                     
   RDEPT  =    1.837    core radius for aug-charge                                                  
                                                                                                    
   Atomic configuration                                                                             
    6 entries                                                                                       
     n  l   j            E        occ.                                                              
     1  0  0.50     -1785.8828   2.0000                                                             
     2  0  0.50      -139.4969   2.0000                                                             
     2  1  1.50       -95.5546   6.0000                                                             
     3  0  0.50       -10.8127   2.0000                                                             
     3  1  0.50        -4.0811   2.0000                                                             
     3  2  1.50        -4.0817   0.0000                                                             
   Description                                                                                      
     l       E           TYP  RCUT    TYP  RCUT                                                     
     0    -10.8127223     23  1.900                                                                 
     0     -7.6451159     23  1.900                                                                 
     1     -4.0811372     23  1.900                                                                 
     1      2.4879257     23  1.900                                                                 
     2     -4.0817478      7  1.900                                                                 
  local pseudopotential read in
  partial core-charges read in
  partial kinetic energy density read in
  atomic valenz-charges read in
  non local Contribution for L=           0  read in
    real space projection operators read in
  non local Contribution for L=           0  read in
    real space projection operators read in
  non local Contribution for L=           1  read in
    real space projection operators read in
  non local Contribution for L=           1  read in
    real space projection operators read in
    PAW grid and wavefunctions read in
 
   number of l-projection  operators is LMAX  =           4
   number of lm-projection operators is LMMAX =           8
 
 -----------------------------------------------------------------------------
|                                                                             |
|               ----> ADVICE to this user running VASP <----                  |
|                                                                             |
|     You have a (more or less) 'large supercell' and for larger cells it     |
|     might be more efficient to use real-space projection operators.         |
|     Therefore, try LREAL= Auto in the INCAR file.                           |
|     Mind: For very accurate calculation, you might also keep the            |
|     reciprocal projection scheme (i.e. LREAL=.FALSE.).                      |
|                                                                             |
 -----------------------------------------------------------------------------

 -----------------------------------------------------------------------------
|                                                                             |
|               ----> ADVICE to this user running VASP <----                  |
|                                                                             |
|     You enforced a specific xc type in the INCAR file but a different       |
|     type was found in the POTCAR file.                                      |
|     I HOPE YOU KNOW WHAT YOU ARE DOING!                                     |
|                                                                             |
 -----------------------------------------------------------------------------

  PAW_PBE Si 05Jan2001                  :
 energy of atom  1       EATOM= -103.0669
 kinetic energy error for atom=    0.0016 (will be added to EATOM!!)
 
 
 POSCAR: Si
  positions in cartesian coordinates
  No initial velocities read in
 exchange correlation table for  LEXCH =       14
   RHO(1)=    0.500       N(1)  =     2000
   RHO(2)=  100.500       N(2)  =     4000
 


--------------------------------------------------------------------------------------------------------


 ion  position               nearest neighbor table
   1  0.251  0.250  0.250-  33 2.35  41 2.35  49 2.36  57 2.36
   2  0.750  0.250  0.250-  34 2.35  42 2.35  50 2.35  58 2.35
   3  0.250  0.750  0.250-  35 2.35  43 2.35  51 2.35  59 2.35
   4  0.750  0.750  0.250-  36 2.35  44 2.35  52 2.35  60 2.35
   5  0.250  0.250  0.750-  37 2.35  45 2.35  53 2.35  61 2.35
   6  0.750  0.250  0.750-  38 2.35  46 2.35  54 2.35  62 2.35
   7  0.250  0.750  0.750-  39 2.35  47 2.35  55 2.35  63 2.35
   8  0.750  0.750  0.750-  40 2.35  48 2.35  56 2.35  64 2.35
   9  0.250  0.999  0.000-  39 2.35  51 2.35  41 2.36  61 2.36
  10  0.750  0.000  0.000-  40 2.35  42 2.35  52 2.35  62 2.35
  11  0.250  0.500  0.000-  37 2.35  43 2.35  49 2.35  63 2.35
  12  0.750  0.500  0.000-  38 2.35  44 2.35  50 2.35  64 2.35
  13  0.250  0.000  0.500-  35 2.35  45 2.35  55 2.35  57 2.35
  14  0.750  0.000  0.500-  36 2.35  46 2.35  56 2.35  58 2.35
  15  0.250  0.500  0.500-  33 2.35  47 2.35  53 2.35  59 2.35
  16  0.750  0.500  0.500-  34 2.35  48 2.35  54 2.35  60 2.35
  17  0.000  0.250  0.000-  38 2.35  42 2.35  49 2.35  61 2.35
  18  0.500  0.250  0.000-  37 2.35  41 2.35  50 2.35  62 2.35
  19  0.000  0.750  0.000-  40 2.35  44 2.35  51 2.35  63 2.35
  20  0.500  0.750  0.000-  39 2.35  43 2.35  52 2.35  64 2.35
  21  0.000  0.250  0.500-  34 2.35  46 2.35  53 2.35  57 2.35
  22  0.500  0.250  0.500-  33 2.35  45 2.35  54 2.35  58 2.35
  23  0.000  0.750  0.500-  36 2.35  48 2.35  55 2.35  59 2.35
  24  0.500  0.750  0.500-  35 2.35  47 2.35  56 2.35  60 2.35
  25  0.000  0.000  0.250-  36 2.35  42 2.35  51 2.35  57 2.35
  26  0.500  0.000  0.250-  35 2.35  41 2.35  52 2.35  58 2.35
  27  0.000  0.500  0.250-  34 2.35  44 2.35  49 2.35  59 2.35
  28  0.500  0.500  0.250-  33 2.35  43 2.35  50 2.35  60 2.35
  29  0.000  0.000  0.750-  40 2.35  46 2.35  55 2.35  61 2.35
  30  0.500  0.000  0.750-  39 2.35  45 2.35  56 2.35  62 2.35
  31  0.000  0.500  0.750-  38 2.35  48 2.35  53 2.35  63 2.35
  32  0.500  0.500  0.750-  37 2.35  47 2.35  54 2.35  64 2.35
  33  0.375  0.375  0.375-   1 2.35  15 2.35  22 2.35  28 2.35
  34  0.875  0.375  0.375-   2 2.35  16 2.35  21 2.35  27 2.35
  35  0.375  0.875  0.375-   3 2.35  13 2.35  24 2.35  26 2.35
  36  0.875  0.875  0.375-   4 2.35  14 2.35  23 2.35  25 2.35
  37  0.375  0.375  0.875-   5 2.35  11 2.35  18 2.35  32 2.35
  38  0.875  0.375  0.875-   6 2.35  12 2.35  17 2.35  31 2.35
  39  0.375  0.875  0.875-   9 2.35   7 2.35  20 2.35  30 2.35
  40  0.875  0.875  0.875-   8 2.35  10 2.35  19 2.35  29 2.35
  41  0.375  0.125  0.125-   1 2.35  18 2.35  26 2.35   9 2.36
  42  0.875  0.125  0.125-   2 2.35  10 2.35  17 2.35  25 2.35
  43  0.375  0.625  0.125-   3 2.35  11 2.35  20 2.35  28 2.35
  44  0.875  0.625  0.125-   4 2.35  12 2.35  19 2.35  27 2.35
  45  0.375  0.125  0.625-   5 2.35  13 2.35  22 2.35  30 2.35
  46  0.875  0.125  0.625-   6 2.35  14 2.35  21 2.35  29 2.35
  47  0.375  0.625  0.625-   7 2.35  15 2.35  24 2.35  32 2.35
  48  0.875  0.625  0.625-   8 2.35  16 2.35  23 2.35  31 2.35
  49  0.125  0.375  0.125-  11 2.35  17 2.35  27 2.35   1 2.36
  50  0.625  0.375  0.125-   2 2.35  12 2.35  18 2.35  28 2.35
  51  0.125  0.875  0.125-   9 2.35   3 2.35  19 2.35  25 2.35
  52  0.625  0.875  0.125-   4 2.35  10 2.35  20 2.35  26 2.35
  53  0.125  0.375  0.625-   5 2.35  15 2.35  21 2.35  31 2.35
  54  0.625  0.375  0.625-   6 2.35  16 2.35  22 2.35  32 2.35
  55  0.125  0.875  0.625-   7 2.35  13 2.35  23 2.35  29 2.35
  56  0.625  0.875  0.625-   8 2.35  14 2.35  24 2.35  30 2.35
  57  0.125  0.125  0.375-  13 2.35  21 2.35  25 2.35   1 2.36
  58  0.625  0.125  0.375-   2 2.35  14 2.35  22 2.35  26 2.35
  59  0.125  0.625  0.375-   3 2.35  15 2.35  23 2.35  27 2.35
  60  0.625  0.625  0.375-   4 2.35  16 2.35  24 2.35  28 2.35
  61  0.125  0.125  0.875-   5 2.35  17 2.35  29 2.35   9 2.36
  62  0.625  0.125  0.875-   6 2.35  10 2.35  18 2.35  30 2.35
  63  0.125  0.625  0.875-   7 2.35  11 2.35  19 2.35  31 2.35
  64  0.625  0.625  0.875-   8 2.35  12 2.35  20 2.35  32 2.35
 
  LATTYP: Found a simple cubic cell.
 ALAT       =    10.8691451200
  
  Lattice vectors:
  
 A1 = (  10.8691451200,  -0.0000000000,  -0.0000000000)
 A2 = (  -0.0000000000,  10.8691451200,   0.0000000000)
 A3 = (   0.0000000000,   0.0000000000,  10.8691451200)


Analysis of symmetry for initial positions (statically):
=====================================================================
 Subroutine PRICEL returns:
 Original cell was already a primitive cell.
 

 Routine SETGRP: Setting up the symmetry group for a 
 simple cubic supercell.


 Subroutine GETGRP returns: Found  1 space group operations
 (whereof  1 operations were pure point group operations)
 out of a pool of 48 trial point group operations.


The static configuration has the point symmetry C_1 .


Analysis of symmetry for dynamics (positions and initial velocities):
=====================================================================
 Subroutine PRICEL returns:
 Original cell was already a primitive cell.
 

 Routine SETGRP: Setting up the symmetry group for a 
 simple cubic supercell.


 Subroutine GETGRP returns: Found  1 space group operations
 (whereof  1 operations were pure point group operations)
 out of a pool of 48 trial point group operations.


The dynamic configuration has the point symmetry C_1 .


 Subroutine INISYM returns: Found  1 space group operations
 (whereof  1 operations are pure point group operations),
 and found     1 'primitive' translations


----------------------------------------------------------------------------------------

                                     Primitive cell                                     

  volume of cell :    1284.0625

  direct lattice vectors                    reciprocal lattice vectors
    10.869145120 -0.000000000 -0.000000000     0.092003556  0.000000000 -0.000000000
    -0.000000000 10.869145120  0.000000000     0.000000000  0.092003556 -0.000000000
     0.000000000  0.000000000 10.869145120     0.000000000 -0.000000000  0.092003556

  length of vectors
    10.869145120 10.869145120 10.869145120     0.092003556  0.092003556  0.092003556

  position of ions in fractional coordinates (direct lattice)
     0.250920036  0.250000000  0.250000000
     0.750000000  0.250000000  0.250000000
     0.250000000  0.750000000  0.250000000
     0.750000000  0.750000000  0.250000000
     0.250000000  0.250000000  0.750000000
     0.750000000  0.250000000  0.750000000
     0.250000000  0.750000000  0.750000000
     0.750000000  0.750000000  0.750000000
     0.250000000  0.999079964  0.000000000
     0.750000000  1.000000000  1.000000000
     0.250000000  0.500000000  0.000000000
     0.750000000  0.500000000  1.000000000
     0.250000000  0.000000000  0.500000000
     0.750000000  1.000000000  0.500000000
     0.250000000  0.500000000  0.500000000
     0.750000000  0.500000000  0.500000000
     1.000000000  0.250000000  0.000000000
     0.500000000  0.250000000  1.000000000
     1.000000000  0.750000000  0.000000000
     0.500000000  0.750000000  0.000000000
     0.000000000  0.250000000  0.500000000
     0.500000000  0.250000000  0.500000000
     1.000000000  0.750000000  0.500000000
     0.500000000  0.750000000  0.500000000
     0.000000000  0.000000000  0.250000000
     0.500000000  1.000000000  0.250000000
     1.000000000  0.500000000  0.250000000
     0.500000000  0.500000000  0.250000000
     0.000000000  0.000000000  0.750000000
     0.500000000  0.000000000  0.750000000
     0.000000000  0.500000000  0.750000000
     0.500000000  0.500000000  0.750000000
     0.375000000  0.375000000  0.375000000
     0.875000000  0.375000000  0.375000000
     0.375000000  0.875000000  0.375000000
     0.875000000  0.875000000  0.375000000
     0.375000000  0.375000000  0.875000000
     0.875000000  0.375000000  0.875000000
     0.375000000  0.875000000  0.875000000
     0.875000000  0.875000000  0.875000000
     0.375000000  0.125000000  0.125000000
     0.875000000  0.125000000  0.125000000
     0.375000000  0.625000000  0.125000000
     0.875000000  0.625000000  0.125000000
     0.375000000  0.125000000  0.625000000
     0.875000000  0.125000000  0.625000000
     0.375000000  0.625000000  0.625000000
     0.875000000  0.625000000  0.625000000
     0.125000000  0.375000000  0.125000000
     0.625000000  0.375000000  0.125000000
     0.125000000  0.875000000  0.125000000
     0.625000000  0.875000000  0.125000000
     0.125000000  0.375000000  0.625000000
     0.625000000  0.375000000  0.625000000
     0.125000000  0.875000000  0.625000000
     0.625000000  0.875000000  0.625000000
     0.125000000  0.125000000  0.375000000
     0.625000000  0.125000000  0.375000000
     0.125000000  0.625000000  0.375000000
     0.625000000  0.625000000  0.375000000
     0.125000000  0.125000000  0.875000000
     0.625000000  0.125000000  0.875000000
     0.125000000  0.625000000  0.875000000
     0.625000000  0.625000000  0.875000000

  ion indices of the primitive-cell ions
   primitive index   ion index
                 1           1
                 2           2
                 3           3
                 4           4
                 5           5
                 6           6
                 7           7
                 8           8
                 9           9
                10          10
                11          11
                12          12
                13          13
                14          14
                15          15
                16          16
                17          17
                18          18
                19          19
                20          20
                21          21
                22          22
                23          23
                24          24
                25          25
                26          26
                27          27
                28          28
                29          29
                30          30
                31          31
                32          32
                33          33
                34          34
                35          35
                36          36
                37          37
                38          38
                39          39
                40          40
                41          41
                42          42
                43          43
                44          44
                45          45
                46          46
                47          47
                48          48
                49          49
                50          50
                51          51
                52          52
                53          53
                54          54
                55          55
                56          56
                57          57
                58          58
                59          59
                60          60
                61          61
                62          62
                63          63
                64          64

----------------------------------------------------------------------------------------

 
 
 KPOINTS: KPOINTS created by Atomic Simulation Env

Automatic generation of k-mesh.
 Grid dimensions read from file:
 generate k-points for:    2    2    2

 Generating k-lattice:

  Cartesian coordinates                     Fractional coordinates (reciprocal lattice)
     0.046001778  0.000000000 -0.000000000     0.500000000 -0.000000000  0.000000000
     0.000000000  0.046001778 -0.000000000    -0.000000000  0.500000000  0.000000000
     0.000000000 -0.000000000  0.046001778    -0.000000000  0.000000000  0.500000000

  Length of vectors
     0.046001778  0.046001778  0.046001778

  Shift w.r.t. Gamma in fractional coordinates (k-lattice)
     0.000000000  0.000000000  0.000000000

 
 Subroutine IBZKPT returns following result:
 ===========================================
 
 Found      8 irreducible k-points:
 
 Following reciprocal coordinates:
            Coordinates               Weight
  0.000000  0.000000  0.000000      1.000000
  0.500000  0.000000  0.000000      1.000000
 -0.000000  0.500000  0.000000      1.000000
  0.000000 -0.000000  0.500000      1.000000
  0.500000  0.500000  0.000000      1.000000
  0.000000  0.500000  0.500000      1.000000
  0.500000 -0.000000  0.500000      1.000000
  0.500000  0.500000  0.500000      1.000000
 
 Following cartesian coordinates:
            Coordinates               Weight
  0.000000  0.000000  0.000000      1.000000
  0.046002  0.000000  0.000000      1.000000
  0.000000  0.046002  0.000000      1.000000
  0.000000 -0.000000  0.046002      1.000000
  0.046002  0.046002  0.000000      1.000000
  0.000000  0.046002  0.046002      1.000000
  0.046002  0.000000  0.046002      1.000000
  0.046002  0.046002  0.046002      1.000000
 


--------------------------------------------------------------------------------------------------------




 Dimension of arrays:
   k-points           NKPTS =      8   k-points in BZ     NKDIM =      8   number of bands    NBANDS=    168
   number of dos      NEDOS =    301   number of ions     NIONS =     64
   non local maximal  LDIM  =      4   non local SUM 2l+1 LMDIM =      8
   total plane-waves  NPLWV = 262144
   max r-space proj   IRMAX =      1   max aug-charges    IRDMAX=  54800
   dimension x,y,z NGX =    64 NGY =   64 NGZ =   64
   dimension x,y,z NGXF=   128 NGYF=  128 NGZF=  128
   support grid    NGXF=   256 NGYF=  256 NGZF=  256
   ions per type =              64
   NGX,Y,Z   is equivalent  to a cutoff of   9.79,  9.79,  9.79 a.u.
   NGXF,Y,Z  is equivalent  to a cutoff of  19.58, 19.58, 19.58 a.u.

 SYSTEM =  unknown system                          
 POSCAR =  Si                                      

 Startparameter for this run:
   NWRITE =      2    write-flag & timer
   PREC   = accura    normal or accurate (medium, high low for compatibility)
   ISTART =      0    job   : 0-new  1-cont  2-samecut
   ICHARG =      2    charge: 1-file 2-atom 10-const
   ISPIN  =      1    spin polarized calculation?
   LNONCOLLINEAR =      F non collinear calculations
   LSORBIT =      F    spin-orbit coupling
   INIWAV =      1    electr: 0-lowe 1-rand  2-diag
   LASPH  =      F    aspherical Exc in radial PAW
 Electronic Relaxation 1
   ENCUT  =  318.0 eV  23.37 Ry    4.83 a.u.  15.80 15.80 15.80*2*pi/ulx,y,z
   ENINI  =  318.0     initial cutoff
   ENAUG  =  322.1 eV  augmentation charge cutoff
   NELM   =     60;   NELMIN=  5; NELMDL= -5     # of ELM steps 
   EDIFF  = 0.1E-07   stopping-criterion for ELM
   LREAL  =      F    real-space projection
   NLSPLINE    = F    spline interpolate recip. space projectors
   LCOMPAT=      F    compatible to vasp.4.4
   GGA_COMPAT  = T    GGA compatible to vasp.4.4-vasp.4.6
   LMAXPAW     = -100 max onsite density
   LMAXMIX     =    2 max onsite mixed and CHGCAR
   VOSKOWN=      0    Vosko Wilk Nusair interpolation
   ROPT   =    0.00000
 Ionic relaxation
   EDIFFG = 0.1E-06   stopping-criterion for IOM
   NSW    =      0    number of steps for IOM
   NBLOCK =      1;   KBLOCK =      1    inner block; outer block 
   IBRION =     -1    ionic relax: 0-MD 1-quasi-New 2-CG
   NFREE  =      0    steps in history (QN), initial steepest desc. (CG)
   ISIF   =      2    stress and relaxation
   IWAVPR =     10    prediction:  0-non 1-charg 2-wave 3-comb
   ISYM   =      2    0-nonsym 1-usesym 2-fastsym
   LCORR  =      T    Harris-Foulkes like correction to forces

   POTIM  = 0.5000    time-step for ionic-motion
   TEIN   =    0.0    initial temperature
   TEBEG  =    0.0;   TEEND  =   0.0 temperature during run
   SMASS  =  -3.00    Nose mass-parameter (am)
   estimated Nose-frequenzy (Omega)   =  0.10E-29 period in steps = 0.13E+47 mass=  -0.270E-26a.u.
   SCALEE = 1.0000    scale energy and forces
   NPACO  =    256;   APACO  = 10.0  distance and # of slots for P.C.
   PSTRESS=    0.0 pullay stress

  Mass of Ions in am
   POMASS =  28.09
  Ionic Valenz
   ZVAL   =   4.00
  Atomic Wigner-Seitz radii
   RWIGS  =  -1.00
  virtual crystal weights 
   VCA    =   1.00
   NELECT =     256.0000    total number of electrons
   NUPDOWN=      -1.0000    fix difference up-down

 DOS related values:
   EMIN   =  10.00;   EMAX   =-10.00  energy-range for DOS
   EFERMI =   0.00
   ISMEAR =     0;   SIGMA  =   0.02  broadening in eV -4-tet -1-fermi 0-gaus

 Electronic relaxation 2 (details)
   IALGO  =     38    algorithm
   LDIAG  =      T    sub-space diagonalisation (order eigenvalues)
   LSUBROT=      F    optimize rotation matrix (better conditioning)
   TURBO    =      0    0=normal 1=particle mesh
   IRESTART =      0    0=no restart 2=restart with 2 vectors
   NREBOOT  =      0    no. of reboots
   NMIN     =      0    reboot dimension
   EREF     =   0.00    reference energy to select bands
   IMIX   =      4    mixing-type and parameters
     AMIX     =   0.40;   BMIX     =  1.00
     AMIX_MAG =   1.60;   BMIX_MAG =  1.00
     AMIN     =   0.10
     WC   =   100.;   INIMIX=   1;  MIXPRE=   1;  MAXMIX= -45

 Intra band minimization:
   WEIMIN = 0.0000     energy-eigenvalue tresh-hold
   EBREAK =  0.15E-10  absolut break condition
   DEPER  =   0.30     relativ break condition  

   TIME   =   0.40     timestep for ELM

  volume/ion in A,a.u.               =      20.06       135.40
  Fermi-wavevector in a.u.,A,eV,Ry     =   0.956370  1.807278 12.444490  0.914644
  Thomas-Fermi vector in A             =   2.085292
 
 Write flags
   LWAVE        =      F    write WAVECAR
   LDOWNSAMPLE  =      F    k-point downsampling of WAVECAR
   LCHARG       =      F    write CHGCAR
   LVTOT        =      F    write LOCPOT, total local potential
   LVHAR        =      F    write LOCPOT, Hartree potential only
   LELF         =      F    write electronic localiz. function (ELF)
   LORBIT       =      0    0 simple, 1 ext, 2 COOP (PROOUT), +10 PAW based schemes


 Dipole corrections
   LMONO  =      F    monopole corrections only (constant potential shift)
   LDIPOL =      F    correct potential (dipole corrections)
   IDIPOL =      0    1-x, 2-y, 3-z, 4-all directions 
   EPSILON=  1.0000000 bulk dielectric constant

 Exchange correlation treatment:
   GGA     =    PS    GGA type
   LEXCH   =    14    internal setting for exchange type
   LIBXC   =     F    Libxc                    
   VOSKOWN =     0    Vosko Wilk Nusair interpolation
   LHFCALC =     F    Hartree Fock is set to
   LHFONE  =     F    Hartree Fock one center treatment
   AEXX    =    0.0000 exact exchange contribution

 Linear response parameters
   LEPSILON=     F    determine dielectric tensor
   LRPA    =     F    only Hartree local field effects (RPA)
   LNABLA  =     F    use nabla operator in PAW spheres
   LVEL    =     F    velocity operator in full k-point grid
   CSHIFT  =0.1000    complex shift for real part using Kramers Kronig
   OMEGAMAX=  -1.0    maximum frequency
   DEG_THRESHOLD= 0.2000000E-02 threshold for treating states as degnerate
   RTIME   =   -0.100 relaxation time in fs
  (WPLASMAI=    0.000 imaginary part of plasma frequency in eV, 0.658/RTIME)
   DFIELD  = 0.0000000 0.0000000 0.0000000 field for delta impulse in time
 
  Optional k-point grid parameters
   LKPOINTS_OPT  =     F    use optional k-point grid
   KPOINTS_OPT_MODE=     1    mode for optional k-point grid
 
 Orbital magnetization related:
   ORBITALMAG=     F  switch on orbital magnetization
   LCHIMAG   =     F  perturbation theory with respect to B field
   DQ        =  0.001000  dq finite difference perturbation B field
   LLRAUG    =     F  two centre corrections for induced B field



--------------------------------------------------------------------------------------------------------


 Static calculation
 charge density and potential will be updated during run
 non-spin polarized calculation
 Variant of blocked Davidson
 Davidson routine will perform the subspace rotation
 perform sub-space diagonalisation
    after iterative eigenvector-optimisation
 modified Broyden-mixing scheme, WC =      100.0
 initial mixing is a Kerker type mixing with AMIX =  0.4000 and BMIX =      1.0000
 Hartree-type preconditioning will be used
 using additional bands           40
 reciprocal scheme for non local part
 use partial core corrections
 calculate Harris-corrections to forces 
   (improved forces if not selfconsistent)
 use gradient corrections 
 use of overlap-Matrix (Vanderbilt PP)
 Gauss-broadening in eV      SIGMA  =   0.02


--------------------------------------------------------------------------------------------------------


  energy-cutoff  :      318.00
  volume of cell :     1284.06
      direct lattice vectors                 reciprocal lattice vectors
    10.869145120 -0.000000000 -0.000000000     0.092003556  0.000000000 -0.000000000
    -0.000000000 10.869145120  0.000000000     0.000000000  0.092003556 -0.000000000
     0.000000000  0.000000000 10.869145120     0.000000000 -0.000000000  0.092003556

  length of vectors
    10.869145120 10.869145120 10.869145120     0.092003556  0.092003556  0.092003556


 
 k-points in units of 2pi/SCALE and weight: KPOINTS created by Atomic Simulation Env
   0.00000000  0.00000000  0.00000000       0.125
   0.04600178  0.00000000  0.00000000       0.125
   0.00000000  0.04600178  0.00000000       0.125
   0.00000000 -0.00000000  0.04600178       0.125
   0.04600178  0.04600178  0.00000000       0.125
   0.00000000  0.04600178  0.04600178       0.125
   0.04600178  0.00000000  0.04600178       0.125
   0.04600178  0.04600178  0.04600178       0.125
 
 k-points in reciprocal lattice and weights: KPOINTS created by Atomic Simulation Env
   0.00000000  0.00000000  0.00000000       0.125
   0.50000000  0.00000000  0.00000000       0.125
  -0.00000000  0.50000000  0.00000000       0.125
   0.00000000 -0.00000000  0.50000000       0.125
   0.50000000  0.50000000  0.00000000       0.125
   0.00000000  0.50000000  0.50000000       0.125
   0.50000000 -0.00000000  0.50000000       0.125
   0.50000000  0.50000000  0.50000000       0.125
 
 position of ions in fractional coordinates (direct lattice) 
   0.25092004  0.25000000  0.25000000
   0.75000000  0.25000000  0.25000000
   0.25000000  0.75000000  0.25000000
   0.75000000  0.75000000  0.25000000
   0.25000000  0.25000000  0.75000000
   0.75000000  0.25000000  0.75000000
   0.25000000  0.75000000  0.75000000
   0.75000000  0.75000000  0.75000000
   0.25000000  0.99907996  0.00000000
   0.75000000  0.00000000  0.00000000
   0.25000000  0.50000000  0.00000000
   0.75000000  0.50000000  0.00000000
   0.25000000  0.00000000  0.50000000
   0.75000000  0.00000000  0.50000000
   0.25000000  0.50000000  0.50000000
   0.75000000  0.50000000  0.50000000
   0.00000000  0.25000000  0.00000000
   0.50000000  0.25000000  0.00000000
   0.00000000  0.75000000  0.00000000
   0.50000000  0.75000000  0.00000000
   0.00000000  0.25000000  0.50000000
   0.50000000  0.25000000  0.50000000
   0.00000000  0.75000000  0.50000000
   0.50000000  0.75000000  0.50000000
   0.00000000  0.00000000  0.25000000
   0.50000000  0.00000000  0.25000000
   0.00000000  0.50000000  0.25000000
   0.50000000  0.50000000  0.25000000
   0.00000000  0.00000000  0.75000000
   0.50000000  0.00000000  0.75000000
   0.00000000  0.50000000  0.75000000
   0.50000000  0.50000000  0.75000000
   0.37500000  0.37500000  0.37500000
   0.87500000  0.37500000  0.37500000
   0.37500000  0.87500000  0.37500000
   0.87500000  0.87500000  0.37500000
   0.37500000  0.37500000  0.87500000
   0.87500000  0.37500000  0.87500000
   0.37500000  0.87500000  0.87500000
   0.87500000  0.87500000  0.87500000
   0.37500000  0.12500000  0.12500000
   0.87500000  0.12500000  0.12500000
   0.37500000  0.62500000  0.12500000
   0.87500000  0.62500000  0.12500000
   0.37500000  0.12500000  0.62500000
   0.87500000  0.12500000  0.62500000
   0.37500000  0.62500000  0.62500000
   0.87500000  0.62500000  0.62500000
   0.12500000  0.37500000  0.12500000
   0.62500000  0.37500000  0.12500000
   0.12500000  0.87500000  0.12500000
   0.62500000  0.87500000  0.12500000
   0.12500000  0.37500000  0.62500000
   0.62500000  0.37500000  0.62500000
   0.12500000  0.87500000  0.62500000
   0.62500000  0.87500000  0.62500000
   0.12500000  0.12500000  0.37500000
   0.62500000  0.12500000  0.37500000
   0.12500000  0.62500000  0.37500000
   0.62500000  0.62500000  0.37500000
   0.12500000  0.12500000  0.87500000
   0.62500000  0.12500000  0.87500000
   0.12500000  0.62500000  0.87500000
   0.62500000  0.62500000  0.87500000
 
 position of ions in cartesian coordinates  (Angst):
   2.72728628  2.71728628  2.71728628
   8.15185884  2.71728628  2.71728628
   2.71728628  8.15185884  2.71728628
   8.15185884  8.15185884  2.71728628
   2.71728628  2.71728628  8.15185884
   8.15185884  2.71728628  8.15185884
   2.71728628  8.15185884  8.15185884
   8.15185884  8.15185884  8.15185884
   2.71728628 10.85914512  0.00000000
   8.15185884 -0.00000000 -0.00000000
   2.71728628  5.43457256  0.00000000
   8.15185884  5.43457256 -0.00000000
   2.71728628  0.00000000  5.43457256
   8.15185884 -0.00000000  5.43457256
   2.71728628  5.43457256  5.43457256
   8.15185884  5.43457256  5.43457256
  -0.00000000  2.71728628  0.00000000
   5.43457256  2.71728628 -0.00000000
  -0.00000000  8.15185884  0.00000000
   5.43457256  8.15185884  0.00000000
   0.00000000  2.71728628  5.43457256
   5.43457256  2.71728628  5.43457256
  -0.00000000  8.15185884  5.43457256
   5.43457256  8.15185884  5.43457256
   0.00000000  0.00000000  2.71728628
   5.43457256 -0.00000000  2.71728628
  -0.00000000  5.43457256  2.71728628
   5.43457256  5.43457256  2.71728628
   0.00000000  0.00000000  8.15185884
   5.43457256  0.00000000  8.15185884
   0.00000000  5.43457256  8.15185884
   5.43457256  5.43457256  8.15185884
   4.07592942  4.07592942  4.07592942
   9.51050198  4.07592942  4.07592942
   4.07592942  9.51050198  4.07592942
   9.51050198  9.51050198  4.07592942
   4.07592942  4.07592942  9.51050198
   9.51050198  4.07592942  9.51050198
   4.07592942  9.51050198  9.51050198
   9.51050198  9.51050198  9.51050198
   4.07592942  1.35864314  1.35864314
   9.51050198  1.35864314  1.35864314
   4.07592942  6.79321570  1.35864314
   9.51050198  6.79321570  1.35864314
   4.07592942  1.35864314  6.79321570
   9.51050198  1.35864314  6.79321570
   4.07592942  6.79321570  6.79321570
   9.51050198  6.79321570  6.79321570
   1.35864314  4.07592942  1.35864314
   6.79321570  4.07592942  1.35864314
   1.35864314  9.51050198  1.35864314
   6.79321570  9.51050198  1.35864314
   1.35864314  4.07592942  6.79321570
   6.79321570  4.07592942  6.79321570
   1.35864314  9.51050198  6.79321570
   6.79321570  9.51050198  6.79321570
   1.35864314  1.35864314  4.07592942
   6.79321570  1.35864314  4.07592942
   1.35864314  6.79321570  4.07592942
   6.79321570  6.79321570  4.07592942
   1.35864314  1.35864314  9.51050198
   6.79321570  1.35864314  9.51050198
   1.35864314  6.79321570  9.51050198
   6.79321570  6.79321570  9.51050198
 


--------------------------------------------------------------------------------------------------------


 k-point   1 :   0.0000 0.0000 0.0000  plane waves:   16519
 k-point   2 :   0.5000 0.0000 0.0000  plane waves:   16488
 k-point   3 :  -0.0000 0.5000 0.0000  plane waves:   16488
 k-point   4 :   0.0000-0.0000 0.5000  plane waves:   16488
 k-point   5 :   0.5000 0.5000 0.0000  plane waves:   16588
 k-point   6 :   0.0000 0.5000 0.5000  plane waves:   16588
 k-point   7 :   0.5000-0.0000 0.5000  plane waves:   16588
 k-point   8 :   0.5000 0.5000 0.5000  plane waves:   16560

 maximum and minimum number of plane-waves per node :      4165     4106

 maximum number of plane-waves:     16588
 maximum index in each direction: 
   IXMAX=   15   IYMAX=   15   IZMAX=   15
   IXMIN=  -16   IYMIN=  -16   IZMIN=  -16


 parallel 3D FFT for wavefunctions:
    minimum data exchange during FFTs selected (reduces bandwidth)
 parallel 3D FFT for charge:
    minimum data exchange during FFTs selected (reduces bandwidth)


 total amount of memory used by VASP MPI-rank0    65387. kBytes
=======================================================================

   base      :      30000. kBytes
   nonl-proj :       6402. kBytes
   fftplans  :      11573. kBytes
   grid      :       5816. kBytes
   one-center:         49. kBytes
   wavefun   :      11547. kBytes
 
     INWAV:  cpu time      0.0000: real time      0.0000
 Broyden mixing: mesh for mixing (old mesh)
   NGX = 31   NGY = 31   NGZ = 31
  (NGX  =128   NGY  =128   NGZ  =128)
  gives a total of  29791 points

 initial charge density was supplied:
 charge density of overlapping atoms calculated
 number of electron     256.0000000 magnetization 
 keeping initial charge density in first step


--------------------------------------------------------------------------------------------------------


 Maximum index for augmentation-charges         1707 (set IRDMAX)


--------------------------------------------------------------------------------------------------------


 First call to EWALD:  gamma=   0.163
 Maximum number of real-space cells 3x 3x 3
 Maximum number of reciprocal cells 3x 3x 3

    FEWALD:  cpu time      0.0017: real time      0.0018


--------------------------------------- Iteration      1(   1)  ---------------------------------------


    POTLOK:  cpu time      0.0230: real time      0.0233
    SETDIJ:  cpu time      0.0224: real time      0.0226
     EDDAV:  cpu time      2.2888: real time      2.3014
       DOS:  cpu time      0.0008: real time      0.0008
    --------------------------------------------
      LOOP:  cpu time      2.3351: real time      2.3481

 eigenvalue-minimisations  :  2688
 total energy-change (2. order) : 0.4510111E+03  (-0.7260797E+04)
 number of electron     256.0000000 magnetization 
 augmentation part      256.0000000 magnetization 

 Free energy of the ion-electron system (eV)
  ---------------------------------------------------
  alpha Z        PSCENC =       107.38120932
  Ewald energy   TEWEN  =     -7307.87536690
  -Hartree energ DENC   =      -353.25093063
  -exchange      EXHF   =         0.00000000
  -V(xc)+E(xc)   XCENC  =      -558.85370799
  PAW double counting   =      5598.62625415    -4492.17844134
  entropy T*S    EENTRO =        -0.00326200
  eigenvalues    EBANDS =       892.39832146
  atomic energy  EATOM  =      6564.76702419
  Solvation  Ediel_sol  =         0.00000000
  ---------------------------------------------------
  free energy    TOTEN  =       451.01110026 eV

  energy without entropy =      451.01436226  energy(sigma->0) =      451.01273126


--------------------------------------------------------------------------------------------------------




--------------------------------------- Iteration      1(   2)  ---------------------------------------


     EDDAV:  cpu time      2.6216: real time      2.6363
       DOS:  cpu time      0.0003: real time      0.0003
    --------------------------------------------
      LOOP:  cpu time      2.6218: real time      2.6366

 eigenvalue-minimisations  :  3232
 total energy-change (2. order) :-0.7730793E+03  (-0.7307666E+03)
 number of electron     256.0000000 magnetization 
 augmentation part      256.0000000 magnetization 

 Free energy of the ion-electron system (eV)
  ---------------------------------------------------
  alpha Z        PSCENC =       107.38120932
  Ewald energy   TEWEN  =     -7307.87536690
  -Hartree energ DENC   =      -353.25093063
  -exchange      EXHF   =         0.00000000
  -V(xc)+E(xc)   XCENC  =      -558.85370799
  PAW double counting   =      5598.62625415    -4492.17844134
  entropy T*S    EENTRO =        -0.00000000
  eigenvalues    EBANDS =       119.31576339
  atomic energy  EATOM  =      6564.76702419
  Solvation  Ediel_sol  =         0.00000000
  ---------------------------------------------------
  free energy    TOTEN  =      -322.06819581 eV

  energy without entropy =     -322.06819581  energy(sigma->0) =     -322.06819581


--------------------------------------------------------------------------------------------------------




--------------------------------------- Iteration      1(   3)  ---------------------------------------


     EDDAV:  cpu time      2.6688: real time      2.6834
       DOS:  cpu time      0.0002: real time      0.0002
    --------------------------------------------
      LOOP:  cpu time      2.6690: real time      2.6836

 eigenvalue-minimisations  :  3304
 total energy-change (2. order) :-0.5134613E+02  (-0.5048471E+02)
 number of electron     256.0000000 magnetization 
 augmentation part      256.0000000 magnetization 

 Free energy of the ion-electron system (eV)
  ---------------------------------------------------
  alpha Z        PSCENC =       107.38120932
  Ewald energy   TEWEN  =     -7307.87536690
  -Hartree energ DENC   =      -353.25093063
  -exchange      EXHF   =         0.00000000
  -V(xc)+E(xc)   XCENC  =      -558.85370799
  PAW double counting   =      5598.62625415    -4492.17844134
  entropy T*S    EENTRO =        -0.00000000
  eigenvalues    EBANDS =        67.96963413
  atomic energy  EATOM  =      6564.76702419
  Solvation  Ediel_sol  =         0.00000000
  ---------------------------------------------------
  free energy    TOTEN  =      -373.41432507 eV

  energy without entropy =     -373.41432507  energy(sigma->0) =     -373.41432507


--------------------------------------------------------------------------------------------------------




--------------------------------------- Iteration      1(   4)  ---------------------------------------


     EDDAV:  cpu time      2.6205: real time      2.6350
       DOS:  cpu time      0.0003: real time      0.0003
    --------------------------------------------
      LOOP:  cpu time      2.6207: real time      2.6352

 eigenvalue-minimisations  :  3224
 total energy-change (2. order) :-0.1184385E+01  (-0.1176141E+01)
 number of electron     256.0000000 magnetization 
 augmentation part      256.0000000 magnetization 

 Free energy of the ion-electron system (eV)
  ---------------------------------------------------
  alpha Z        PSCENC =       107.38120932
  Ewald energy   TEWEN  =     -7307.87536690
  -Hartree energ DENC   =      -353.25093063
  -exchange      EXHF   =         0.00000000
  -V(xc)+E(xc)   XCENC  =      -558.85370799
  PAW double counting   =      5598.62625415    -4492.17844134
  entropy T*S    EENTRO =        -0.00000000
  eigenvalues    EBANDS =        66.78524893
  atomic energy  EATOM  =      6564.76702419
  Solvation  Ediel_sol  =         0.00000000
  ---------------------------------------------------
  free energy    TOTEN  =      -374.59871027 eV

  energy without entropy =     -374.59871027  energy(sigma->0) =     -374.59871027


--------------------------------------------------------------------------------------------------------




--------------------------------------- Iteration      1(   5)  ---------------------------------------


     EDDAV:  cpu time      2.5911: real time      2.6049
       DOS:  cpu time      0.0003: real time      0.0002
    CHARGE:  cpu time      0.0794: real time      0.0798
    MIXING:  cpu time      0.0026: real time      0.0026
    --------------------------------------------
      LOOP:  cpu time      2.6734: real time      2.6876

 eigenvalue-minimisations  :  3184
 total energy-change (2. order) :-0.4191048E-01  (-0.4186086E-01)
 number of electron     255.9999994 magnetization 
 augmentation part      -14.9589739 magnetization 

 Broyden mixing:
  rms(total) = 0.28465E+01    rms(broyden)= 0.28465E+01
  rms(prec ) = 0.31321E+01
  weight for this iteration     100.00

 Free energy of the ion-electron system (eV)
  ---------------------------------------------------
  alpha Z        PSCENC =       107.38120932
  Ewald energy   TEWEN  =     -7307.87536690
  -Hartree energ DENC   =      -353.25093063
  -exchange      EXHF   =         0.00000000
  -V(xc)+E(xc)   XCENC  =      -558.85370799
  PAW double counting   =      5598.62625415    -4492.17844134
  entropy T*S    EENTRO =        -0.00000000
  eigenvalues    EBANDS =        66.74333845
  atomic energy  EATOM  =      6564.76702419
  Solvation  Ediel_sol  =         0.00000000
  ---------------------------------------------------
  free energy    TOTEN  =      -374.64062075 eV

  energy without entropy =     -374.64062075  energy(sigma->0) =     -374.64062075


--------------------------------------------------------------------------------------------------------




--------------------------------------- Iteration      1(   6)  ---------------------------------------


    POTLOK:  cpu time      0.0221: real time      0.0223
    SETDIJ:  cpu time      0.0220: real time      0.0221
     EDDAV:  cpu time      2.5230: real time      2.5370
       DOS:  cpu time      0.0003: real time      0.0003
    CHARGE:  cpu time      0.0776: real time      0.0780
    MIXING:  cpu time      0.0025: real time      0.0025
    --------------------------------------------
      LOOP:  cpu time      2.6474: real time      2.6621

 eigenvalue-minimisations  :  3064
 total energy-change (2. order) : 0.4919054E+01  (-0.2592201E+00)
 number of electron     255.9999994 magnetization 
 augmentation part      -14.7996972 magnetization 

 Broyden mixing:
  rms(total) = 0.17163E+01    rms(broyden)= 0.17163E+01
  rms(prec ) = 0.18755E+01
  weight for this iteration     100.00

 eigenvalues of (default mixing * dielectric matrix)
  average eigenvalue GAMMA=   2.5112
  2.5112

 Free energy of the ion-electron system (eV)
  ---------------------------------------------------
  alpha Z        PSCENC =       107.38120932
  Ewald energy   TEWEN  =     -7307.87536690
  -Hartree energ DENC   =      -399.23557368
  -exchange      EXHF   =         0.00000000
  -V(xc)+E(xc)   XCENC  =      -551.57554839
  PAW double counting   =     12482.62235328   -11379.42015561
  entropy T*S    EENTRO =        -0.00000000
  eigenvalues    EBANDS =       113.61449082
  atomic energy  EATOM  =      6564.76702419
  Solvation  Ediel_sol  =         0.00000000
  ---------------------------------------------------
  free energy    TOTEN  =      -369.72156697 eV

  energy without entropy =     -369.72156697  energy(sigma->0) =     -369.72156697


--------------------------------------------------------------------------------------------------------




--------------------------------------- Iteration      1(   7)  ---------------------------------------


    POTLOK:  cpu time      0.0220: real time      0.0222
    SETDIJ:  cpu time      0.0221: real time      0.0222
     EDDAV:  cpu time      2.5095: real time      2.5231
       DOS:  cpu time      0.0002: real time      0.0002
    CHARGE:  cpu time      0.0784: real time      0.0789
    MIXING:  cpu time      0.0027: real time      0.0027
    --------------------------------------------
      LOOP:  cpu time      2.6349: real time      2.6493

 eigenvalue-minimisations  :  3048
 total energy-change (2. order) : 0.2231205E+01  (-0.5238948E+00)
 number of electron     255.9999994 magnetization 
 augmentation part      -14.5985343 magnetization 

 Broyden mixing:
  rms(total) = 0.99613E-01    rms(broyden)= 0.99613E-01
  rms(prec ) = 0.12388E+00
  weight for this iteration     100.00

 eigenvalues of (default mixing * dielectric matrix)
  average eigenvalue GAMMA=   2.2503
  2.2503  2.2503

 Free energy of the ion-electron system (eV)
  ---------------------------------------------------
  alpha Z        PSCENC =       107.38120932
  Ewald energy   TEWEN  =     -7307.87536690
  -Hartree energ DENC   =      -473.65434923
  -exchange      EXHF   =         0.00000000
  -V(xc)+E(xc)   XCENC  =      -539.13664673
  PAW double counting   =     29123.04232512   -28024.21207336
  entropy T*S    EENTRO =        -0.00000000
  eigenvalues    EBANDS =       182.19751513
  atomic energy  EATOM  =      6564.76702419
  Solvation  Ediel_sol  =         0.00000000
  ---------------------------------------------------
  free energy    TOTEN  =      -367.49036246 eV

  energy without entropy =     -367.49036246  energy(sigma->0) =     -367.49036246


--------------------------------------------------------------------------------------------------------




--------------------------------------- Iteration      1(   8)  ---------------------------------------


    POTLOK:  cpu time      0.0217: real time      0.0219
    SETDIJ:  cpu time      0.0219: real time      0.0220
     EDDAV:  cpu time      2.5224: real time      2.5360
       DOS:  cpu time      0.0002: real time      0.0002
    CHARGE:  cpu time      0.0792: real time      0.0796
    MIXING:  cpu time      0.0028: real time      0.0028
    --------------------------------------------
      LOOP:  cpu time      2.6482: real time      2.6626

 eigenvalue-minimisations  :  3064
 total energy-change (2. order) :-0.7116629E-02  (-0.2830167E-01)
 number of electron     255.9999994 magnetization 
 augmentation part      -14.6403103 magnetization 

 Broyden mixing:
  rms(total) = 0.35215E-01    rms(broyden)= 0.35214E-01
  rms(prec ) = 0.40561E-01
  weight for this iteration     100.00

 eigenvalues of (default mixing * dielectric matrix)
  average eigenvalue GAMMA=   2.4258
  2.8150  2.2312  2.2312

 Free energy of the ion-electron system (eV)
  ---------------------------------------------------
  alpha Z        PSCENC =       107.38120932
  Ewald energy   TEWEN  =     -7307.87536690
  -Hartree energ DENC   =      -466.68776369
  -exchange      EXHF   =         0.00000000
  -V(xc)+E(xc)   XCENC  =      -539.74337258
  PAW double counting   =     28622.14576341   -27522.51496647
  entropy T*S    EENTRO =        -0.00000000
  eigenvalues    EBANDS =       175.02999363
  atomic energy  EATOM  =      6564.76702419
  Solvation  Ediel_sol  =         0.00000000
  ---------------------------------------------------
  free energy    TOTEN  =      -367.49747909 eV

  energy without entropy =     -367.49747909  energy(sigma->0) =     -367.49747909


--------------------------------------------------------------------------------------------------------




--------------------------------------- Iteration      1(   9)  ---------------------------------------


    POTLOK:  cpu time      0.0211: real time      0.0212
    SETDIJ:  cpu time      0.0218: real time      0.0220
     EDDAV:  cpu time      2.6682: real time      2.6832
       DOS:  cpu time      0.0002: real time      0.0002
    CHARGE:  cpu time      0.0786: real time      0.0791
    MIXING:  cpu time      0.0024: real time      0.0024
    --------------------------------------------
      LOOP:  cpu time      2.7924: real time      2.8082

 eigenvalue-minimisations  :  3304
 total energy-change (2. order) :-0.1486424E-02  (-0.7226245E-03)
 number of electron     255.9999994 magnetization 
 augmentation part      -14.6409801 magnetization 

 Broyden mixing:
  rms(total) = 0.30977E-01    rms(broyden)= 0.30977E-01
  rms(prec ) = 0.32081E-01
  weight for this iteration     100.00

 eigenvalues of (default mixing * dielectric matrix)
  average eigenvalue GAMMA=   2.3736
  3.8695  2.3811  2.3811  0.8629

 Free energy of the ion-electron system (eV)
  ---------------------------------------------------
  alpha Z        PSCENC =       107.38120932
  Ewald energy   TEWEN  =     -7307.87536690
  -Hartree energ DENC   =      -468.63901303
  -exchange      EXHF   =         0.00000000
  -V(xc)+E(xc)   XCENC  =      -539.41457578
  PAW double counting   =     28767.98617384   -27668.45924710
  entropy T*S    EENTRO =        -0.00000000
  eigenvalues    EBANDS =       176.75482994
  atomic energy  EATOM  =      6564.76702419
  Solvation  Ediel_sol  =         0.00000000
  ---------------------------------------------------
  free energy    TOTEN  =      -367.49896551 eV

  energy without entropy =     -367.49896551  energy(sigma->0) =     -367.49896551


--------------------------------------------------------------------------------------------------------




--------------------------------------- Iteration      1(  10)  ---------------------------------------


    POTLOK:  cpu time      0.0209: real time      0.0210
    SETDIJ:  cpu time      0.0221: real time      0.0222
     EDDAV:  cpu time      2.4620: real time      2.4756
       DOS:  cpu time      0.0003: real time      0.0003
    CHARGE:  cpu time      0.0775: real time      0.0779
    MIXING:  cpu time      0.0027: real time      0.0027
    --------------------------------------------
      LOOP:  cpu time      2.5856: real time      2.5998

 eigenvalue-minimisations  :  2976
 total energy-change (2. order) :-0.8541950E-03  (-0.2087629E-03)
 number of electron     255.9999994 magnetization 
 augmentation part      -14.6429518 magnetization 

 Broyden mixing:
  rms(total) = 0.22901E-01    rms(broyden)= 0.22901E-01
  rms(prec ) = 0.23020E-01
  weight for this iteration     100.00

 eigenvalues of (default mixing * dielectric matrix)
  average eigenvalue GAMMA=   1.8668
  2.8625  2.2487  2.2487  0.9871  0.9871

 Free energy of the ion-electron system (eV)
  ---------------------------------------------------
  alpha Z        PSCENC =       107.38120932
  Ewald energy   TEWEN  =     -7307.87536690
  -Hartree energ DENC   =      -468.87755840
  -exchange      EXHF   =         0.00000000
  -V(xc)+E(xc)   XCENC  =      -539.34052646
  PAW double counting   =     28253.41252109   -27153.85443080
  entropy T*S    EENTRO =        -0.00000000
  eigenvalues    EBANDS =       176.88730825
  atomic energy  EATOM  =      6564.76702419
  Solvation  Ediel_sol  =         0.00000000
  ---------------------------------------------------
  free energy    TOTEN  =      -367.49981970 eV

  energy without entropy =     -367.49981970  energy(sigma->0) =     -367.49981970


--------------------------------------------------------------------------------------------------------




--------------------------------------- Iteration      1(  11)  ---------------------------------------


    POTLOK:  cpu time      0.0214: real time      0.0216
    SETDIJ:  cpu time      0.0217: real time      0.0218
     EDDAV:  cpu time      2.5797: real time      2.5935
       DOS:  cpu time      0.0003: real time      0.0003
    CHARGE:  cpu time      0.0775: real time      0.0779
    MIXING:  cpu time      0.0023: real time      0.0023
    --------------------------------------------
      LOOP:  cpu time      2.7027: real time      2.7173

 eigenvalue-minimisations  :  3168
 total energy-change (2. order) :-0.3907633E-04  (-0.8825732E-05)
 number of electron     255.9999994 magnetization 
 augmentation part      -14.6438101 magnetization 

 Broyden mixing:
  rms(total) = 0.87174E-03    rms(broyden)= 0.87172E-03
  rms(prec ) = 0.96672E-03
  weight for this iteration     100.00

 eigenvalues of (default mixing * dielectric matrix)
  average eigenvalue GAMMA=   1.7599
  2.8869  2.2537  2.2537  1.1979  1.1979  0.7696

 Free energy of the ion-electron system (eV)
  ---------------------------------------------------
  alpha Z        PSCENC =       107.38120932
  Ewald energy   TEWEN  =     -7307.87536690
  -Hartree energ DENC   =      -468.75134654
  -exchange      EXHF   =         0.00000000
  -V(xc)+E(xc)   XCENC  =      -539.35262377
  PAW double counting   =     28479.59155104   -27380.02173624
  entropy T*S    EENTRO =        -0.00000000
  eigenvalues    EBANDS =       176.76143012
  atomic energy  EATOM  =      6564.76702419
  Solvation  Ediel_sol  =         0.00000000
  ---------------------------------------------------
  free energy    TOTEN  =      -367.49985878 eV

  energy without entropy =     -367.49985878  energy(sigma->0) =     -367.49985878


--------------------------------------------------------------------------------------------------------




--------------------------------------- Iteration      1(  12)  ---------------------------------------


    POTLOK:  cpu time      0.0216: real time      0.0218
    SETDIJ:  cpu time      0.0217: real time      0.0219
     EDDAV:  cpu time      2.5971: real time      2.6114
       DOS:  cpu time      0.0003: real time      0.0003
    CHARGE:  cpu time      0.0792: real time      0.0796
    MIXING:  cpu time      0.0020: real time      0.0020
    --------------------------------------------
      LOOP:  cpu time      2.7219: real time      2.7369

 eigenvalue-minimisations  :  3192
 total energy-change (2. order) :-0.2277468E-05  (-0.3182819E-06)
 number of electron     255.9999994 magnetization 
 augmentation part      -14.6436928 magnetization 

 Broyden mixing:
  rms(total) = 0.82899E-03    rms(broyden)= 0.82899E-03
  rms(prec ) = 0.85879E-03
  weight for this iteration     100.00

 eigenvalues of (default mixing * dielectric matrix)
  average eigenvalue GAMMA=   1.8576
  3.0241  2.4936  2.4936  2.2042  0.9829  0.9025  0.9025

 Free energy of the ion-electron system (eV)
  ---------------------------------------------------
  alpha Z        PSCENC =       107.38120932
  Ewald energy   TEWEN  =     -7307.87536690
  -Hartree energ DENC   =      -468.78371989
  -exchange      EXHF   =         0.00000000
  -V(xc)+E(xc)   XCENC  =      -539.35101868
  PAW double counting   =     28482.02569109   -27382.45501276
  entropy T*S    EENTRO =        -0.00000000
  eigenvalues    EBANDS =       176.79133257
  atomic energy  EATOM  =      6564.76702419
  Solvation  Ediel_sol  =         0.00000000
  ---------------------------------------------------
  free energy    TOTEN  =      -367.49986106 eV

  energy without entropy =     -367.49986106  energy(sigma->0) =     -367.49986106


--------------------------------------------------------------------------------------------------------




--------------------------------------- Iteration      1(  13)  ---------------------------------------


    POTLOK:  cpu time      0.0214: real time      0.0215
    SETDIJ:  cpu time      0.0219: real time      0.0220
     EDDAV:  cpu time      2.5049: real time      2.5187
       DOS:  cpu time      0.0003: real time      0.0003
    CHARGE:  cpu time      0.0780: real time      0.0784
    MIXING:  cpu time      0.0029: real time      0.0029
    --------------------------------------------
      LOOP:  cpu time      2.6294: real time      2.6438

 eigenvalue-minimisations  :  3048
 total energy-change (2. order) : 0.1065901E-05  (-0.8796291E-07)
 number of electron     255.9999994 magnetization 
 augmentation part      -14.6436545 magnetization 

 Broyden mixing:
  rms(total) = 0.16864E-03    rms(broyden)= 0.16864E-03
  rms(prec ) = 0.17435E-03
  weight for this iteration     100.00

 eigenvalues of (default mixing * dielectric matrix)
  average eigenvalue GAMMA=   1.7818
  3.0648  2.6250  2.3608  2.2185  0.9567  0.9567  1.0360  1.0360

 Free energy of the ion-electron system (eV)
  ---------------------------------------------------
  alpha Z        PSCENC =       107.38120932
  Ewald energy   TEWEN  =     -7307.87536690
  -Hartree energ DENC   =      -468.78687567
  -exchange      EXHF   =         0.00000000
  -V(xc)+E(xc)   XCENC  =      -539.35335921
  PAW double counting   =     28476.29309697   -27376.71994655
  entropy T*S    EENTRO =        -0.00000000
  eigenvalues    EBANDS =       176.79435785
  atomic energy  EATOM  =      6564.76702419
  Solvation  Ediel_sol  =         0.00000000
  ---------------------------------------------------
  free energy    TOTEN  =      -367.49985999 eV

  energy without entropy =     -367.49985999  energy(sigma->0) =     -367.49985999


--------------------------------------------------------------------------------------------------------




--------------------------------------- Iteration      1(  14)  ---------------------------------------


    POTLOK:  cpu time      0.0210: real time      0.0212
    SETDIJ:  cpu time      0.0219: real time      0.0220
     EDDAV:  cpu time      2.0638: real time      2.0752
       DOS:  cpu time      0.0003: real time      0.0003
    CHARGE:  cpu time      0.0781: real time      0.0786
    MIXING:  cpu time      0.0023: real time      0.0023
    --------------------------------------------
      LOOP:  cpu time      2.1874: real time      2.1994

 eigenvalue-minimisations  :  2320
 total energy-change (2. order) : 0.1149356E-06  (-0.2091107E-08)
 number of electron     255.9999994 magnetization 
 augmentation part      -14.6436500 magnetization 

 Broyden mixing:
  rms(total) = 0.47030E-04    rms(broyden)= 0.47030E-04
  rms(prec ) = 0.49393E-04
  weight for this iteration     100.00

 eigenvalues of (default mixing * dielectric matrix)
  average eigenvalue GAMMA=   1.8087
  3.0795  2.5109  2.5109  2.1036  2.1036  1.1397  0.9876  0.9211  0.9211

 Free energy of the ion-electron system (eV)
  ---------------------------------------------------
  alpha Z        PSCENC =       107.38120932
  Ewald energy   TEWEN  =     -7307.87536690
  -Hartree energ DENC   =      -468.78655845
  -exchange      EXHF   =         0.00000000
  -V(xc)+E(xc)   XCENC  =      -539.35374239
  PAW double counting   =     28475.04816068   -27375.47486588
  entropy T*S    EENTRO =        -0.00000000
  eigenvalues    EBANDS =       176.79427955
  atomic energy  EATOM  =      6564.76702419
  Solvation  Ediel_sol  =         0.00000000
  ---------------------------------------------------
  free energy    TOTEN  =      -367.49985988 eV

  energy without entropy =     -367.49985988  energy(sigma->0) =     -367.49985988


--------------------------------------------------------------------------------------------------------




--------------------------------------- Iteration      1(  15)  ---------------------------------------


    POTLOK:  cpu time      0.0214: real time      0.0216
    SETDIJ:  cpu time      0.0218: real time      0.0219
     EDDAV:  cpu time      1.7849: real time      1.7948
       DOS:  cpu time      0.0003: real time      0.0003
    --------------------------------------------
      LOOP:  cpu time      1.8283: real time      1.8385

 eigenvalue-minimisations  :  1864
 total energy-change (2. order) : 0.8120878E-08  (-0.1093888E-08)
 number of electron     255.9999994 magnetization 
 augmentation part      -14.6436500 magnetization 

 Free energy of the ion-electron system (eV)
  ---------------------------------------------------
  alpha Z        PSCENC =       107.38120932
  Ewald energy   TEWEN  =     -7307.87536690
  -Hartree energ DENC   =      -468.78607703
  -exchange      EXHF   =         0.00000000
  -V(xc)+E(xc)   XCENC  =      -539.35380144
  PAW double counting   =     28474.89220595   -27375.31896046
  entropy T*S    EENTRO =        -0.00000000
  eigenvalues    EBANDS =       176.79390650
  atomic energy  EATOM  =      6564.76702419
  Solvation  Ediel_sol  =         0.00000000
  ---------------------------------------------------
  free energy    TOTEN  =      -367.49985987 eV

  energy without entropy =     -367.49985987  energy(sigma->0) =     -367.49985987


--------------------------------------------------------------------------------------------------------




 average (electrostatic) potential at core
  the test charge radii are     0.9892
  (the norm of the test charge is              1.0000)
       1 -83.0574       2 -83.0572       3 -83.0572       4 -83.0574       5 -83.0574
       6 -83.0572       7 -83.0572       8 -83.0574       9 -83.0595      10 -83.0570
      11 -83.0552      12 -83.0576      13 -83.0552      14 -83.0576      15 -83.0594
      16 -83.0570      17 -83.0575      18 -83.0573      19 -83.0571      20 -83.0573
      21 -83.0573      22 -83.0571      23 -83.0573      24 -83.0575      25 -83.0595
      26 -83.0551      27 -83.0571      28 -83.0575      29 -83.0551      30 -83.0595
      31 -83.0575      32 -83.0571      33 -83.0573      34 -83.0568      35 -83.0569
      36 -83.0588      37 -83.0568      38 -83.0578      39 -83.0584      40 -83.0569
      41 -83.0573      42 -83.0572      43 -83.0574      44 -83.0573      45 -83.0573
      46 -83.0563      47 -83.0584      48 -83.0573      49 -83.0572      50 -83.0579
      51 -83.0573      52 -83.0568      53 -83.0578      54 -83.0569      55 -83.0558
      56 -83.0588      57 -83.0578      58 -83.0563      59 -83.0573      60 -83.0572
      61 -83.0578      62 -83.0573      63 -83.0563      64 -83.0572
 
 
 
 E-fermi :   5.8941     XC(G=0):  -9.5445     alpha+bet :-11.9543

 Fermi energy:         5.8940575167

 k-point     1 :       0.0000    0.0000    0.0000
  band No.  band energies     occupation 
      1      -6.2055      2.00000
      2      -5.1234      2.00000
      3      -5.1225      2.00000
      4      -5.1213      2.00000
      5      -5.1208      2.00000
      6      -5.1208      2.00000
      7      -5.1188      2.00000
      8      -4.1599      2.00000
      9      -4.1579      2.00000
     10      -4.1562      2.00000
     11      -4.1554      2.00000
     12      -4.1551      2.00000
     13      -4.1551      2.00000
     14      -4.1549      2.00000
     15      -4.1549      2.00000
     16      -4.1546      2.00000
     17      -4.1539      2.00000
     18      -4.1516      2.00000
     19      -4.1511      2.00000
     20      -3.8625      2.00000
     21      -3.8607      2.00000
     22      -3.8606      2.00000
     23      -3.8588      2.00000
     24      -2.0544      2.00000
     25      -2.0541      2.00000
     26      -2.0519      2.00000
     27      -2.0519      2.00000
     28      -2.0499      2.00000
     29      -2.0497      2.00000
     30      -1.8882      2.00000
     31      -1.8859      2.00000
     32      -1.8844      2.00000
     33      -1.8830      2.00000
     34      -1.8828      2.00000
     35      -1.8827      2.00000
     36      -1.8825      2.00000
     37      -1.8824      2.00000
     38      -1.8823      2.00000
     39      -1.8813      2.00000
     40      -1.8797      2.00000
     41      -1.8771      2.00000
     42      -1.2365      2.00000
     43      -1.2347      2.00000
     44      -1.2347      2.00000
     45      -1.2328      2.00000
     46       0.2777      2.00000
     47       0.2790      2.00000
     48       0.2796      2.00000
     49       0.2817      2.00000
     50       0.2818      2.00000
     51       0.2820      2.00000
     52       0.2821      2.00000
     53       0.2822      2.00000
     54       0.2825      2.00000
     55       0.2840      2.00000
     56       0.2851      2.00000
     57       0.2858      2.00000
     58       1.8681      2.00000
     59       1.8700      2.00000
     60       1.8705      2.00000
     61       1.8707      2.00000
     62       1.8708      2.00000
     63       1.8710      2.00000
     64       1.8713      2.00000
     65       1.8715      2.00000
     66       1.8717      2.00000
     67       1.8719      2.00000
     68       1.8731      2.00000
     69       1.8734      2.00000
     70       1.9706      2.00000
     71       1.9711      2.00000
     72       1.9720      2.00000
     73       1.9724      2.00000
     74       1.9729      2.00000
     75       1.9733      2.00000
     76       1.9737      2.00000
     77       1.9744      2.00000
     78       1.9744      2.00000
     79       1.9747      2.00000
     80       1.9749      2.00000
     81       1.9754      2.00000
     82       2.2487      2.00000
     83       2.2493      2.00000
     84       2.2510      2.00000
     85       2.2521      2.00000
     86       2.2534      2.00000
     87       2.2541      2.00000
     88       2.9008      2.00000
     89       2.9008      2.00000
     90       2.9017      2.00000
     91       2.9017      2.00000
     92       2.9026      2.00000
     93       2.9026      2.00000
     94       3.8628      2.00000
     95       3.8642      2.00000
     96       3.8658      2.00000
     97       3.8660      2.00000
     98       3.8667      2.00000
     99       3.8667      2.00000
    100       3.8668      2.00000
    101       3.8668      2.00000
    102       3.8670      2.00000
    103       3.8675      2.00000
    104       3.8689      2.00000
    105       3.8708      2.00000
    106       4.4327      2.00000
    107       4.4339      2.00000
    108       4.4353      2.00000
    109       4.4364      2.00000
    110       4.4368      2.00000
    111       4.4371      2.00000
    112       4.4372      2.00000
    113       4.4373      2.00000
    114       4.4377      2.00000
    115       4.4382      2.00000
    116       4.4400      2.00000
    117       4.4414      2.00000
    118       4.5667      2.00000
    119       4.5679      2.00000
    120       4.5691      2.00000
    121       4.5697      2.00000
    122       4.5700      2.00000
    123       4.5705      2.00000
    124       4.5718      2.00000
    125       4.5732      2.00000
    126       5.7698      2.00000
    127       5.7720      2.00000
    128       5.7741      2.00000
    129       6.3636      0.00000
    130       6.3648      0.00000
    131       6.3658      0.00000
    132       6.3658      0.00000
    133       6.3667      0.00000
    134       6.3679      0.00000
    135       6.8056      0.00000
    136       6.8063      0.00000
    137       6.8077      0.00000
    138       6.8089      0.00000
    139       6.8095      0.00000
    140       6.8103      0.00000
    141       7.2316      0.00000
    142       7.2320      0.00000
    143       7.2320      0.00000
    144       7.2324      0.00000
    145       8.1342      0.00000
    146       8.1353      0.00000
    147       8.1359      0.00000
    148       8.1369      0.00000
    149       8.1377      0.00000
    150       8.1379      0.00000
    151       8.1379      0.00000
    152       8.1382      0.00000
    153       8.1390      0.00000
    154       8.1402      0.00000
    155       8.1403      0.00000
    156       8.1414      0.00000
    157       8.2877      0.00000
    158       8.2889      0.00000
    159       8.2902      0.00000
    160       8.7967      0.00000
    161       8.7967      0.00000
    162       8.7979      0.00000
    163       8.7980      0.00000
    164       8.7992      0.00000
    165       8.7992      0.00000
    166       9.0495      0.00000
    167       9.0503      0.00000
    168       9.0521      0.00000

 k-point     2 :       0.5000    0.0000    0.0000
  band No.  band energies     occupation 
      1      -5.9327      2.00000
      2      -5.9313      2.00000
      3      -4.8767      2.00000
      4      -4.8741      2.00000
      5      -4.8728      2.00000
      6      -4.8727      2.00000
      7      -4.8727      2.00000
      8      -4.8716      2.00000
      9      -4.8712      2.00000
     10      -4.8700      2.00000
     11      -4.0264      2.00000
     12      -4.0232      2.00000
     13      -4.0229      2.00000
     14      -4.0229      2.00000
     15      -4.0225      2.00000
     16      -4.0225      2.00000
     17      -4.0222      2.00000
     18      -4.0191      2.00000
     19      -3.8068      2.00000
     20      -3.8045      2.00000
     21      -3.0807      2.00000
     22      -3.0782      2.00000
     23      -3.0769      2.00000
     24      -3.0763      2.00000
     25      -3.0761      2.00000
     26      -3.0753      2.00000
     27      -3.0748      2.00000
     28      -3.0728      2.00000
     29      -1.9752      2.00000
     30      -1.9717      2.00000
     31      -1.9716      2.00000
     32      -1.9715      2.00000
     33      -1.9715      2.00000
     34      -1.9713      2.00000
     35      -1.9712      2.00000
     36      -1.9677      2.00000
     37      -0.8061      2.00000
     38      -0.8056      2.00000
     39      -0.8040      2.00000
     40      -0.8029      2.00000
     41      -0.8026      2.00000
     42      -0.8017      2.00000
     43      -0.8015      2.00000
     44      -0.7996      2.00000
     45      -0.6374      2.00000
     46      -0.6350      2.00000
     47      -0.6348      2.00000
     48      -0.6343      2.00000
     49      -0.6336      2.00000
     50      -0.6332      2.00000
     51      -0.6329      2.00000
     52      -0.6304      2.00000
     53       0.0225      2.00000
     54       0.0240      2.00000
     55       1.4705      2.00000
     56       1.4721      2.00000
     57       1.4735      2.00000
     58       1.4741      2.00000
     59       1.4744      2.00000
     60       1.4752      2.00000
     61       1.4766      2.00000
     62       1.4769      2.00000
     63       1.4911      2.00000
     64       1.4923      2.00000
     65       1.4929      2.00000
     66       1.4934      2.00000
     67       1.4938      2.00000
     68       1.4942      2.00000
     69       1.4946      2.00000
     70       1.4953      2.00000
     71       2.3166      2.00000
     72       2.3172      2.00000
     73       2.3176      2.00000
     74       2.3179      2.00000
     75       2.3182      2.00000
     76       2.3185      2.00000
     77       2.3189      2.00000
     78       2.3195      2.00000
     79       3.0221      2.00000
     80       3.0236      2.00000
     81       3.0245      2.00000
     82       3.0248      2.00000
     83       3.0252      2.00000
     84       3.0255      2.00000
     85       3.0256      2.00000
     86       3.0272      2.00000
     87       3.1464      2.00000
     88       3.1477      2.00000
     89       3.1484      2.00000
     90       3.1493      2.00000
     91       3.1570      2.00000
     92       3.1578      2.00000
     93       3.1586      2.00000
     94       3.1590      2.00000
     95       3.1593      2.00000
     96       3.1602      2.00000
     97       3.1607      2.00000
     98       3.1615      2.00000
     99       3.2833      2.00000
    100       3.2845      2.00000
    101       3.2850      2.00000
    102       3.2856      2.00000
    103       3.2859      2.00000
    104       3.2865      2.00000
    105       3.2871      2.00000
    106       3.2882      2.00000
    107       4.3289      2.00000
    108       4.3307      2.00000
    109       4.3311      2.00000
    110       4.3316      2.00000
    111       4.3319      2.00000
    112       4.3322      2.00000
    113       4.3335      2.00000
    114       4.3345      2.00000
    115       4.4329      2.00000
    116       4.4330      2.00000
    117       4.4964      2.00000
    118       4.5003      2.00000
    119       4.5008      2.00000
    120       4.5009      2.00000
    121       4.5009      2.00000
    122       4.5010      2.00000
    123       4.5014      2.00000
    124       4.5056      2.00000
    125       4.9529      2.00000
    126       4.9547      2.00000
    127       4.9557      2.00000
    128       4.9577      2.00000
    129       6.2790      0.00000
    130       6.2804      0.00000
    131       7.1933      0.00000
    132       7.1946      0.00000
    133       7.6431      0.00000
    134       7.6447      0.00000
    135       7.6454      0.00000
    136       7.6458      0.00000
    137       7.6459      0.00000
    138       7.6463      0.00000
    139       7.6471      0.00000
    140       7.6486      0.00000
    141       7.7139      0.00000
    142       7.7144      0.00000
    143       8.0570      0.00000
    144       8.0590      0.00000
    145       8.0594      0.00000
    146       8.0597      0.00000
    147       8.0598      0.00000
    148       8.0601      0.00000
    149       8.0604      0.00000
    150       8.0622      0.00000
    151       8.1430      0.00000
    152       8.1441      0.00000
    153       8.1453      0.00000
    154       8.1457      0.00000
    155       8.1461      0.00000
    156       8.1466      0.00000
    157       8.1469      0.00000
    158       8.1477      0.00000
    159       8.5506      0.00000
    160       8.5515      0.00000
    161       8.5519      0.00000
    162       8.5523      0.00000
    163       8.5532      0.00000
    164       8.5536      0.00000
    165       8.5545      0.00000
    166       8.5549      0.00000
    167       9.3194      0.00000
    168       9.3240      0.00000

 k-point     3 :      -0.0000    0.5000    0.0000
  band No.  band energies     occupation 
      1      -5.9327      2.00000
      2      -5.9313      2.00000
      3      -4.8752      2.00000
      4      -4.8746      2.00000
      5      -4.8738      2.00000
      6      -4.8730      2.00000
      7      -4.8725      2.00000
      8      -4.8721      2.00000
      9      -4.8713      2.00000
     10      -4.8694      2.00000
     11      -4.0251      2.00000
     12      -4.0247      2.00000
     13      -4.0237      2.00000
     14      -4.0229      2.00000
     15      -4.0226      2.00000
     16      -4.0225      2.00000
     17      -4.0211      2.00000
     18      -4.0190      2.00000
     19      -3.8068      2.00000
     20      -3.8045      2.00000
     21      -3.0802      2.00000
     22      -3.0778      2.00000
     23      -3.0771      2.00000
     24      -3.0764      2.00000
     25      -3.0760      2.00000
     26      -3.0759      2.00000
     27      -3.0752      2.00000
     28      -3.0725      2.00000
     29      -1.9740      2.00000
     30      -1.9736      2.00000
     31      -1.9717      2.00000
     32      -1.9717      2.00000
     33      -1.9715      2.00000
     34      -1.9713      2.00000
     35      -1.9705      2.00000
     36      -1.9675      2.00000
     37      -0.8067      2.00000
     38      -0.8049      2.00000
     39      -0.8038      2.00000
     40      -0.8029      2.00000
     41      -0.8026      2.00000
     42      -0.8019      2.00000
     43      -0.8015      2.00000
     44      -0.7999      2.00000
     45      -0.6370      2.00000
     46      -0.6357      2.00000
     47      -0.6347      2.00000
     48      -0.6343      2.00000
     49      -0.6340      2.00000
     50      -0.6331      2.00000
     51      -0.6319      2.00000
     52      -0.6308      2.00000
     53       0.0225      2.00000
     54       0.0240      2.00000
     55       1.4707      2.00000
     56       1.4722      2.00000
     57       1.4731      2.00000
     58       1.4741      2.00000
     59       1.4742      2.00000
     60       1.4750      2.00000
     61       1.4761      2.00000
     62       1.4778      2.00000
     63       1.4916      2.00000
     64       1.4925      2.00000
     65       1.4927      2.00000
     66       1.4933      2.00000
     67       1.4935      2.00000
     68       1.4939      2.00000
     69       1.4946      2.00000
     70       1.4955      2.00000
     71       2.3169      2.00000
     72       2.3170      2.00000
     73       2.3176      2.00000
     74       2.3177      2.00000
     75       2.3181      2.00000
     76       2.3185      2.00000
     77       2.3191      2.00000
     78       2.3194      2.00000
     79       3.0225      2.00000
     80       3.0237      2.00000
     81       3.0240      2.00000
     82       3.0243      2.00000
     83       3.0253      2.00000
     84       3.0257      2.00000
     85       3.0259      2.00000
     86       3.0271      2.00000
     87       3.1466      2.00000
     88       3.1477      2.00000
     89       3.1484      2.00000
     90       3.1494      2.00000
     91       3.1570      2.00000
     92       3.1579      2.00000
     93       3.1585      2.00000
     94       3.1590      2.00000
     95       3.1598      2.00000
     96       3.1600      2.00000
     97       3.1605      2.00000
     98       3.1612      2.00000
     99       3.2836      2.00000
    100       3.2844      2.00000
    101       3.2850      2.00000
    102       3.2855      2.00000
    103       3.2859      2.00000
    104       3.2863      2.00000
    105       3.2872      2.00000
    106       3.2883      2.00000
    107       4.3291      2.00000
    108       4.3305      2.00000
    109       4.3309      2.00000
    110       4.3316      2.00000
    111       4.3319      2.00000
    112       4.3325      2.00000
    113       4.3332      2.00000
    114       4.3346      2.00000
    115       4.4329      2.00000
    116       4.4330      2.00000
    117       4.4966      2.00000
[...]
         0         1         2         3         4         5         6         7         8         9
 total charge-density along one line
 
 pseudopotential strength for first ion, spin component:           1
 18.404  25.676   0.000   0.000   0.000   0.000   0.000   0.000
 25.676  35.825   0.000   0.000   0.000   0.000   0.000   0.001
  0.000   0.000   4.177   0.000   0.000   7.782   0.000   0.000
  0.000   0.000   0.000   4.177  -0.000   0.000   7.782  -0.000
  0.000   0.000   0.000  -0.000   4.177   0.000  -0.000   7.782
  0.000   0.000   7.782   0.000   0.000  14.509   0.000   0.000
  0.000   0.000   0.000   7.782  -0.000   0.000  14.509  -0.000
  0.000   0.001   0.000  -0.000   7.782   0.000  -0.000  14.509
 total augmentation occupancy for first ion, spin component:           1
  5.947  -2.288   0.000   0.000   0.019  -0.000  -0.000  -0.006
 -2.288   0.989   0.000   0.000  -0.009   0.000   0.000   0.003
  0.000   0.000   3.001   0.022   0.000  -0.681  -0.006  -0.000
  0.000   0.000   0.022   3.001  -0.000  -0.006  -0.681   0.000
  0.019  -0.009   0.000  -0.000   3.000   0.000   0.000  -0.681
 -0.000   0.000  -0.681  -0.006   0.000   0.164   0.002   0.000
 -0.000   0.000  -0.006  -0.681   0.000   0.002   0.164  -0.000
 -0.006   0.003  -0.000   0.000  -0.681   0.000  -0.000   0.164


------------------------ aborting loop because EDIFF is reached ----------------------------------------


    CHARGE:  cpu time      0.0772: real time      0.0777
    FORLOC:  cpu time      0.0091: real time      0.0091
    FORNL :  cpu time      1.0587: real time      1.0638
    STRESS:  cpu time      2.1510: real time      2.1621
    FORCOR:  cpu time      0.0281: real time      0.0283
    FORHAR:  cpu time      0.0115: real time      0.0116
    MIXING:  cpu time      0.0009: real time      0.0009
    OFIELD:  cpu time      0.0000: real time      0.0000

  FORCE on cell =-STRESS in cart. coord.  units (eV):
  Direction    XX          YY          ZZ          XY          YZ          ZX
  --------------------------------------------------------------------------------------
  Alpha Z   107.38121   107.38121   107.38121
  Ewald   -2435.97696 -2435.97696 -2435.96733    -0.00030     0.78458    -0.78514
  Hartree   156.26135   156.26135   156.26315    -0.00016     0.08692    -0.08727
  E(xc)    -817.39782  -817.39782  -817.39794     0.00000    -0.01015     0.01015
  Local    -931.45676  -931.45672  -931.46767     0.00048    -0.81820     0.81915
  n-local  2483.02438  2483.02435  2483.02634    -0.00000     0.16274    -0.16275
  augment  -368.16897  -368.16896  -368.16907     0.00000    -0.00718     0.00718
  Kinetic  1806.30875  1806.30875  1806.30837    -0.00002    -0.09988     0.09987
  Fock        0.00000     0.00000     0.00000     0.00000     0.00000     0.00000
  -------------------------------------------------------------------------------------
  Total      -0.02481    -0.02480    -0.02293     0.00000     0.09883    -0.09882
  in kB      -0.03095    -0.03094    -0.02862     0.00000     0.12331    -0.12330
  external pressure =       -0.03 kB  Pullay stress =        0.00 kB


 VOLUME and BASIS-vectors are now :
 -----------------------------------------------------------------------------
  energy-cutoff  :      318.00
  volume of cell :     1284.06
      direct lattice vectors                 reciprocal lattice vectors
    10.869145120 -0.000000000 -0.000000000     0.092003556  0.000000000 -0.000000000
    -0.000000000 10.869145120  0.000000000     0.000000000  0.092003556 -0.000000000
     0.000000000  0.000000000 10.869145120     0.000000000 -0.000000000  0.092003556

  length of vectors
    10.869145120 10.869145120 10.869145120     0.092003556  0.092003556  0.092003556


 FORCES acting on ions
    electron-ion (+dipol)            ewald-force                    non-local-force                 convergence-correction
 -----------------------------------------------------------------------------------------------
   0.519E+00 0.301E-01 0.557E-01   -.474E+00 -.297E-01 -.564E-01   -.179E+00 -.222E-02 -.118E-02   0.283E-04 0.125E-05 0.132E-04
   -.614E-01 0.681E-03 0.607E-02   0.615E-01 -.980E-03 -.466E-02   -.505E-04 -.150E-04 -.804E-03   0.156E-04 -.128E-04 0.364E-05
   0.191E-01 0.299E-01 -.560E-01   -.195E-01 -.296E-01 0.567E-01   -.828E-04 -.223E-02 0.119E-02   -.279E-04 -.718E-05 -.198E-04
   -.167E-01 0.596E-03 -.606E-02   0.153E-01 -.911E-03 0.467E-02   0.138E-02 -.609E-05 0.803E-03   0.300E-04 -.527E-05 -.862E-05
   0.225E-01 0.301E-01 -.557E-01   -.195E-01 -.297E-01 0.564E-01   -.156E-02 -.222E-02 0.119E-02   -.103E-04 -.385E-05 -.197E-04
   -.157E-01 0.681E-03 -.606E-02   0.153E-01 -.980E-03 0.466E-02   0.521E-03 -.671E-05 0.803E-03   0.173E-04 -.204E-04 -.290E-05
   -.789E-03 0.299E-01 0.560E-01   -.804E-02 -.296E-01 -.567E-01   0.589E-02 -.223E-02 -.118E-02   -.384E-04 0.301E-05 0.137E-04
   -.652E-02 0.591E-03 0.607E-02   0.752E-02 -.911E-03 -.467E-02   -.722E-03 -.112E-04 -.798E-03   0.329E-04 0.430E-05 -.341E-05
   0.263E-01 -.526E+00 -.496E-02   -.365E-01 0.474E+00 0.105E-03   0.591E-02 0.185E+00 0.579E-02   -.162E-04 -.436E-04 0.208E-04
   -.201E-01 -.207E-01 0.106E-03   0.207E-01 0.194E-01 -.318E-04   -.581E-03 0.842E-03 0.232E-05   0.209E-04 -.281E-05 0.132E-07
   0.266E-01 0.561E-01 0.468E-02   -.367E-01 -.616E-01 0.106E-03   0.593E-02 0.621E-02 -.575E-02   -.236E-04 0.380E-04 0.175E-04
   -.201E-01 0.162E-01 -.521E-04   0.207E-01 -.153E-01 -.318E-04   -.585E-03 -.974E-03 -.123E-05   0.221E-04 0.206E-04 0.911E-05
   0.266E-01 -.161E-01 -.469E-02   -.367E-01 0.196E-01 -.106E-03   0.592E-02 -.490E-02 0.574E-02   -.232E-04 -.653E-05 -.519E-05
   -.201E-01 0.247E-02 0.504E-04   0.207E-01 0.800E-02 0.318E-04   -.585E-03 -.662E-02 -.598E-05   0.172E-04 0.194E-05 -.663E-06
   0.265E-01 0.212E-01 0.498E-02   -.367E-01 -.154E-01 -.106E-03   0.593E-02 -.678E-02 -.580E-02   -.968E-05 0.173E-04 -.307E-04
   -.201E-01 0.689E-02 -.103E-03   0.207E-01 -.748E-02 0.318E-04   -.582E-03 0.283E-03 0.190E-05   0.275E-04 0.137E-04 -.729E-05
   -.857E-01 0.284E-01 -.541E-01   0.861E-01 -.297E-01 0.564E-01   0.341E-02 -.151E-02 0.462E-03   -.386E-04 -.195E-05 0.738E-05
   0.258E-01 0.283E-01 0.544E-01   -.268E-01 -.297E-01 -.567E-01   0.105E-02 -.145E-02 -.476E-03   0.234E-04 -.270E-05 0.235E-04
   0.554E-01 0.294E-01 -.437E-02   -.558E-01 -.296E-01 0.466E-02   -.116E-02 -.179E-02 0.521E-04   0.582E-05 -.802E-05 0.748E-05
   -.566E-01 0.294E-01 0.434E-02   0.576E-01 -.296E-01 -.467E-02   0.120E-02 -.181E-02 -.461E-04   0.300E-05 -.582E-05 0.162E-04
   -.361E-01 0.233E-02 0.562E-01   0.344E-01 -.980E-03 -.564E-01   0.304E-02 -.718E-03 -.161E-02   -.320E-04 -.167E-04 0.193E-05
   -.239E-01 0.240E-02 -.565E-01   0.249E-01 -.980E-03 0.567E-01   0.143E-02 -.773E-03 0.163E-02   0.116E-04 -.193E-04 -.264E-04
   0.541E-02 0.110E-02 0.657E-02   -.369E-02 -.911E-03 -.466E-02   -.778E-03 -.441E-03 -.123E-02   -.145E-04 0.139E-05 -.535E-05
   -.667E-02 0.110E-02 -.657E-02   0.558E-02 -.911E-03 0.467E-02   0.799E-03 -.435E-03 0.122E-02   0.169E-04 0.511E-07 -.441E-05
   -.350E-01 -.822E-01 0.331E-02   0.298E-01 0.931E-01 -.106E-03   0.804E-02 -.476E-02 -.510E-02   -.166E-04 -.231E-04 -.300E-06
   -.346E-01 0.295E-01 -.641E-02   0.295E-01 -.200E-01 -.106E-03   0.797E-02 -.709E-02 0.650E-02   0.116E-04 0.204E-04 0.590E-05
   -.299E-01 0.758E-01 0.154E-02   0.297E-01 -.770E-01 0.318E-04   0.223E-02 -.615E-03 -.705E-03   -.225E-04 0.380E-04 -.253E-05
   -.299E-01 -.359E-01 0.177E-02   0.296E-01 0.361E-01 0.318E-04   0.223E-02 0.177E-02 -.766E-03   -.107E-04 0.430E-06 -.522E-05
   0.404E-02 -.326E-01 0.419E-02   0.109E-02 0.414E-01 0.106E-03   -.572E-02 -.511E-02 -.531E-02   -.249E-04 -.216E-04 -.115E-04
   0.436E-02 -.205E-01 -.547E-02   0.805E-03 0.321E-01 0.106E-03   -.581E-02 -.674E-02 0.624E-02   0.247E-04 -.186E-05 -.365E-05
   -.706E-03 0.262E-01 0.453E-03   0.948E-03 -.253E-01 -.318E-04   0.259E-04 -.234E-03 -.434E-03   -.187E-04 0.322E-04 0.117E-04
   -.717E-03 0.140E-01 0.609E-03   0.943E-03 -.160E-01 -.318E-04   0.630E-05 0.137E-02 -.426E-03   0.183E-04 0.151E-04 0.300E-05
   -.482E-02 -.187E+00 -.194E+00   0.303E-02 0.161E+00 0.168E+00   0.345E-01 0.487E-01 0.484E-01   0.494E-05 0.251E-05 -.249E-04
   -.538E-01 0.249E-01 0.195E-01   0.548E-01 -.242E-01 -.193E-01   -.779E-03 -.198E-03 -.852E-04   -.112E-05 0.701E-05 -.158E-04
   0.794E-02 0.470E-02 -.230E-01   -.826E-02 -.180E-02 0.234E-01   0.220E-03 -.204E-02 -.279E-03   -.103E-04 -.334E-05 -.172E-04
   -.147E-01 -.225E-01 0.288E-02   0.114E-01 0.156E-01 0.460E-05   0.368E-02 0.504E-02 -.289E-02   0.622E-05 -.879E-05 0.406E-05
   0.304E-01 0.465E-01 0.537E-03   -.316E-01 -.455E-01 -.576E-04   0.989E-03 -.467E-03 -.506E-03   0.145E-04 0.124E-04 0.286E-04
   -.243E-01 0.192E-01 -.125E-01   0.231E-01 -.187E-01 0.117E-01   0.159E-02 -.534E-03 0.806E-03   -.181E-05 0.222E-04 -.109E-04
   -.189E+00 0.946E-02 0.203E+00   0.169E+00 -.102E-01 -.180E+00   0.452E-01 -.314E-01 -.463E-01   -.555E-05 -.196E-04 0.889E-05
   0.102E-01 -.153E-01 0.307E-02   -.920E-02 0.175E-01 -.407E-02   -.863E-03 -.145E-02 0.866E-03   0.273E-04 -.962E-05 -.143E-05
   0.193E+00 0.213E+00 0.404E+00   -.169E+00 -.185E+00 -.352E+00   -.143E-01 -.837E-01 -.979E-01   0.231E-04 0.629E-05 0.307E-04
   -.696E-01 -.303E-01 -.121E-01   0.690E-01 0.315E-01 0.997E-02   0.189E-03 -.991E-03 0.132E-02   -.115E-04 -.104E-04 0.145E-04
   -.431E-02 0.340E-01 -.123E-01   0.191E-02 -.356E-01 0.102E-01   0.155E-02 0.135E-02 0.133E-02   -.954E-05 0.865E-05 0.141E-04
   -.667E-02 0.242E-01 -.750E-02   0.694E-02 -.231E-01 0.724E-02   -.289E-03 -.159E-02 -.238E-03   0.202E-04 0.173E-04 -.103E-06
   0.184E-01 -.778E-02 -.357E-01   -.216E-01 0.811E-02 0.335E-01   0.231E-02 -.214E-03 0.155E-02   0.163E-04 -.105E-04 -.256E-04
   -.163E-01 -.174E-01 0.791E-02   0.187E-01 0.111E-01 -.442E-02   -.237E-02 0.399E-02 -.396E-02   -.192E-05 -.236E-04 0.424E-05
   0.995E-02 0.146E-01 0.800E-02   -.391E-02 -.114E-01 -.450E-02   -.420E-02 -.368E-02 -.396E-02   -.767E-05 0.114E-04 -.102E-04
   -.547E-02 0.974E-02 0.432E-02   0.491E-02 -.101E-01 -.523E-02   0.923E-04 0.264E-03 0.365E-03   0.193E-04 0.147E-04 0.511E-05
   -.279E-01 0.253E+00 -.184E+00   0.251E-01 -.228E+00 0.159E+00   0.347E-01 -.480E-01 0.483E-01   -.792E-05 0.356E-04 0.922E-05
   -.431E-01 -.197E-02 0.212E-01   0.443E-01 0.179E-02 -.205E-01   -.151E-02 -.379E-03 -.141E-03   -.503E-06 0.232E-05 0.310E-05
   0.216E+00 -.931E-02 -.208E+00   -.191E+00 0.102E-01 0.183E+00   -.480E-01 -.336E-01 0.483E-01   -.248E-04 -.446E-04 -.226E-05
   -.333E-01 -.430E-02 -.144E-02   0.317E-01 0.682E-02 0.304E-02   0.142E-02 -.220E-02 -.950E-03   0.196E-04 -.116E-04 0.512E-05
   0.929E-02 0.207E-01 0.913E-02   -.112E-01 -.218E-01 -.874E-02   0.116E-02 0.382E-03 0.154E-03   -.350E-04 0.224E-04 -.221E-05
   -.133E-01 0.386E-02 -.110E-01   0.124E-01 -.390E-02 0.107E-01   0.839E-03 -.169E-04 0.756E-03   0.229E-04 -.153E-04 -.517E-05
   0.189E-01 -.140E-01 0.187E-01   -.142E-01 0.186E-01 -.204E-01   -.306E-02 -.430E-02 0.226E-02   -.396E-04 -.121E-05 0.522E-05
   -.846E-02 -.116E-01 -.132E-02   0.111E-01 0.491E-02 -.984E-03   -.311E-02 0.429E-02 0.284E-02   0.322E-04 0.507E-05 -.803E-05
   -.158E-01 -.215E+00 0.219E+00   0.151E-01 0.190E+00 -.192E+00   0.334E-01 0.473E-01 -.494E-01   -.116E-04 -.207E-04 -.643E-06
   -.510E-01 0.378E-02 -.166E-01   0.487E-01 -.936E-02 0.132E-01   0.244E-02 0.385E-02 0.330E-02   0.750E-05 -.868E-05 0.142E-05
   0.168E-01 0.333E-01 -.358E-02   -.184E-01 -.318E-01 0.141E-02   0.139E-02 -.144E-02 0.199E-02   -.216E-04 0.165E-04 -.140E-04
   -.176E-01 -.125E-02 -.595E-02   0.176E-01 0.614E-03 0.626E-02   0.479E-03 0.102E-02 -.278E-03   0.153E-04 0.682E-05 -.170E-04
   -.189E+00 0.541E-02 -.219E+00   0.161E+00 -.169E-02 0.192E+00   0.499E-01 -.355E-01 0.494E-01   -.499E-04 -.410E-04 -.153E-04
   0.244E-02 -.922E-02 0.360E-02   -.178E-02 0.112E-01 -.141E-02   -.116E-03 -.117E-02 -.199E-02   0.242E-04 0.141E-05 0.517E-06
   0.312E-01 0.527E-01 0.166E-01   -.243E-01 -.559E-01 -.132E-01   -.439E-02 0.361E-02 -.331E-02   -.417E-04 0.219E-04 0.198E-04
   -.164E-01 0.133E-01 0.595E-02   0.156E-01 -.124E-01 -.626E-02   0.854E-03 -.850E-03 0.279E-03   0.259E-04 0.978E-05 0.156E-04
 -----------------------------------------------------------------------------------------------
   0.492E-04 -.278E-04 0.733E-05   -.460E-13 0.339E-13 0.484E-13   -.387E-04 0.229E-04 -.121E-05   -.335E-05 -.778E-06 -.317E-05
 
 
 POSITION                                       TOTAL-FORCE (eV/Angst)
 -----------------------------------------------------------------------------------
      2.72729      2.71729      2.71729        -0.133091     -0.001868     -0.001846
      8.15186      2.71729      2.71729         0.000100     -0.000327      0.000604
      2.71729      8.15186      2.71729        -0.000474     -0.001878      0.001866
      8.15186      8.15186      2.71729        -0.000028     -0.000326     -0.000600
      2.71729      2.71729      8.15186         0.001423     -0.001861      0.001854
      8.15186      2.71729      8.15186         0.000125     -0.000326     -0.000603
      2.71729      8.15186      8.15186        -0.002975     -0.001877     -0.001864
      8.15186      8.15186      8.15186         0.000304     -0.000327      0.000602
      2.71729     10.85915      0.00000        -0.004277      0.133077      0.000954
      8.15186     -0.00000     -0.00000        -0.000039     -0.000406      0.000076
      2.71729      5.43457      0.00000        -0.004267      0.000764     -0.000942
      8.15186      5.43457     -0.00000        -0.000035      0.000030     -0.000076
      2.71729      0.00000      5.43457        -0.004267     -0.001424      0.000941
      8.15186     -0.00000      5.43457        -0.000035      0.003849      0.000076
      2.71729      5.43457      5.43457        -0.004278     -0.001001     -0.000954
      8.15186      5.43457      5.43457        -0.000039     -0.000301     -0.000077
     -0.00000      2.71729      0.00000         0.003712     -0.002801      0.002796
      5.43457      2.71729     -0.00000         0.000019     -0.002815     -0.002798
     -0.00000      8.15186      0.00000        -0.001541     -0.001953      0.000348
      5.43457      8.15186      0.00000         0.002193     -0.001954     -0.000353
      0.00000      2.71729      5.43457         0.001256      0.000615     -0.001778
      5.43457      2.71729      5.43457         0.002479      0.000627      0.001787
     -0.00000      8.15186      5.43457         0.000929     -0.000250      0.000681
      5.43457      8.15186      5.43457        -0.000275     -0.000249     -0.000680
      0.00000      0.00000      2.71729         0.002813      0.006128     -0.001896
      5.43457     -0.00000      2.71729         0.002819      0.002401     -0.000010
     -0.00000      5.43457      2.71729         0.001938     -0.001812      0.000865
      5.43457      5.43457      2.71729         0.001954      0.001903      0.001030
      0.00000      0.00000      8.15186        -0.000618      0.003661     -0.001019
      5.43457      0.00000      8.15186        -0.000625      0.004876      0.000876
      0.00000      5.43457      8.15186         0.000249      0.000642     -0.000000
      5.43457      5.43457      8.15186         0.000251     -0.000562      0.000153
      4.07593      4.07593      4.07593         0.032742      0.022789      0.022795
      9.51050      4.07593      4.07593         0.000183      0.000519      0.000071
      4.07593      9.51050      4.07593        -0.000109      0.000859      0.000064
      9.51050      9.51050      4.07593         0.000473     -0.001876     -0.000004
      4.07593      4.07593      9.51050        -0.000174      0.000496      0.000002
      9.51050      4.07593      9.51050         0.000431      0.000030     -0.000037
      4.07593      9.51050      9.51050         0.025096     -0.032233     -0.022757
      9.51050      9.51050      9.51050         0.000165      0.000786     -0.000136
      4.07593      1.35864      1.35864         0.010096     -0.055175     -0.045416
      9.51050      1.35864      1.35864        -0.000427      0.000168     -0.000752
      4.07593      6.79322      1.35864        -0.000856     -0.000255     -0.000746
      9.51050      6.79322      1.35864         0.000003     -0.000434     -0.000505
      4.07593      1.35864      6.79322        -0.000925      0.000103     -0.000681
      9.51050      1.35864      6.79322        -0.000034     -0.002331     -0.000464
      4.07593      6.79322      6.79322         0.001831     -0.000476     -0.000469
      9.51050      6.79322      6.79322        -0.000447     -0.000092     -0.000540
      1.35864      4.07593      1.35864         0.031841     -0.022310      0.022745
      6.79322      4.07593      1.35864        -0.000298     -0.000557      0.000590
      1.35864      9.51050      1.35864        -0.023517     -0.032824      0.023416
      6.79322      9.51050      1.35864        -0.000119      0.000300      0.000661
      1.35864      4.07593      6.79322        -0.000762     -0.000628      0.000549
      6.79322      4.07593      6.79322        -0.000046     -0.000077      0.000487
      1.35864      9.51050      6.79322         0.001672      0.000263      0.000594
      6.79322      9.51050      6.79322        -0.000429     -0.002355      0.000522
      1.35864      1.35864      4.07593         0.032592      0.022914     -0.022061
      6.79322      1.35864      4.07593         0.000166     -0.001740     -0.000089
      1.35864      6.79322      4.07593        -0.000257      0.000115     -0.000195
      6.79322      6.79322      4.07593         0.000494      0.000394      0.000013
      1.35864      1.35864      9.51050         0.021889     -0.031775      0.022059
      6.79322      1.35864      9.51050         0.000563      0.000764      0.000194
      1.35864      6.79322      9.51050         0.002419      0.000340      0.000087
      6.79322      6.79322      9.51050         0.000041      0.000046     -0.000012
 -----------------------------------------------------------------------------------
    total drift:                                0.000007     -0.000006      0.000003


--------------------------------------------------------------------------------------------------------



  FREE ENERGIE OF THE ION-ELECTRON SYSTEM (eV)
  ---------------------------------------------------
  free  energy   TOTEN  =      -367.49985987 eV

  energy  without entropy=     -367.49985987  energy(sigma->0) =     -367.49985987
 


--------------------------------------------------------------------------------------------------------


    POTLOK:  cpu time      0.0421: real time      0.0425


--------------------------------------------------------------------------------------------------------


     LOOP+:  cpu time     41.7048: real time     41.9417
    4ORBIT:  cpu time      0.0000: real time      0.0000

 total amount of memory used by VASP MPI-rank0    65387. kBytes
=======================================================================

   base      :      30000. kBytes
   nonl-proj :       6402. kBytes
   fftplans  :      11573. kBytes
   grid      :       5816. kBytes
   one-center:         49. kBytes
   wavefun   :      11547. kBytes
 
  
  
 General timing and accounting informations for this job:
 ========================================================
  
                  Total CPU time used (sec):       43.710
                            User time (sec):       42.589
                          System time (sec):        1.121
                         Elapsed time (sec):       44.125
  
                   Maximum memory used (kb):      224344.
                   Average memory used (kb):          N/A
  
                          Minor page faults:        81702
                          Major page faults:            0
                 Voluntary context switches:          758
