 running on   32 total cores
 distrk:  each k-point on   32 cores,    1 groups
 distr:  one band on    4 cores,    8 groups
 vasp.6.3.2 27Jun22 (build Oct 14 2022 12:13:54) complex                        
  
 POSCAR found type information on POSCAR Si
 POSCAR found :  1 types and      64 ions
 scaLAPACK will be used
 -----------------------------------------------------------------------------
|                                                                             |
|               ----> ADVICE to this user running VASP <----                  |
|                                                                             |
|     You have a (more or less) 'large supercell' and for larger cells it     |
|     might be more efficient to use real-space projection operators.         |
|     Therefore, try LREAL= Auto in the INCAR file.                           |
|     Mind: For very accurate calculation, you might also keep the            |
|     reciprocal projection scheme (i.e. LREAL=.FALSE.).                      |
|                                                                             |
 -----------------------------------------------------------------------------

 -----------------------------------------------------------------------------
|                                                                             |
|               ----> ADVICE to this user running VASP <----                  |
|                                                                             |
|     You enforced a specific xc type in the INCAR file but a different       |
|     type was found in the POTCAR file.                                      |
|     I HOPE YOU KNOW WHAT YOU ARE DOING!                                     |
|                                                                             |
 -----------------------------------------------------------------------------

 LDA part: xc-table for Pade appr. of Perdew
 POSCAR, INCAR and KPOINTS ok, starting setup
 FFT: planning ... GRIDC
 FFT: planning ... GRID_SOFT
 FFT: planning ... GRID
 WAVECAR not read
 entering main loop
       N       E                     dE             d eps       ncg     rms          rms(c)
DAV:   1     0.451011100259E+03    0.45101E+03   -0.72608E+04  2688   0.852E+02
DAV:   2    -0.322068195808E+03   -0.77308E+03   -0.73077E+03  3232   0.155E+02
DAV:   3    -0.373414325073E+03   -0.51346E+02   -0.50485E+02  3304   0.365E+01
DAV:   4    -0.374598710270E+03   -0.11844E+01   -0.11761E+01  3224   0.671E+00
DAV:   5    -0.374640620752E+03   -0.41910E-01   -0.41861E-01  3184   0.111E+00    0.285E+01
DAV:   6    -0.369721566969E+03    0.49191E+01   -0.25922E+00  3064   0.242E+00    0.172E+01
DAV:   7    -0.367490362457E+03    0.22312E+01   -0.52389E+00  3048   0.349E+00    0.996E-01
DAV:   8    -0.367497479086E+03   -0.71166E-02   -0.28302E-01  3064   0.970E-01    0.352E-01
DAV:   9    -0.367498965510E+03   -0.14864E-02   -0.72262E-03  3304   0.163E-01    0.310E-01
DAV:  10    -0.367499819705E+03   -0.85420E-03   -0.20876E-03  2976   0.832E-02    0.229E-01
DAV:  11    -0.367499858781E+03   -0.39076E-04   -0.88257E-05  3168   0.189E-02    0.872E-03
DAV:  12    -0.367499861058E+03   -0.22775E-05   -0.31828E-06  3192   0.353E-03    0.829E-03
DAV:  13    -0.367499859992E+03    0.10659E-05   -0.87963E-07  3048   0.197E-03    0.169E-03
DAV:  14    -0.367499859878E+03    0.11494E-06   -0.20911E-08  2320   0.337E-04    0.470E-04
DAV:  15    -0.367499859869E+03    0.81209E-08   -0.10939E-08  1864   0.199E-04
   1 F= -.36749986E+03 E0= -.36749986E+03  d E =-.448807E-18
