<?xml version="1.0" encoding="ISO-8859-1"?>
<modeling>
 <generator>
  <i name="program" type="string">vasp </i>
  <i name="version" type="string">6.3.2  </i>
  <i name="subversion" type="string">27Jun22 (build Oct 14 2022 12:13:54) complex                          parallel </i>
  <i name="platform" type="string">LinuxIFC </i>
  <i name="date" type="string">2023 04 03 </i>
  <i name="time" type="string">14:39:53 </i>
 </generator>
 <incar>
  <i type="string" name="PREC">Accurate</i>
  <i type="int" name="IALGO">    38</i>
  <i type="logical" name="ADDGRID"> T  </i>
  <i type="int" name="NELMIN">     5</i>
  <i type="int" name="IBRION">    -1</i>
  <i name="EDIFF">      0.00000001</i>
  <i name="ENCUT">    318.00000000</i>
  <i type="logical" name="LREAL"> F  </i>
  <i type="int" name="ISMEAR">     0</i>
  <i name="SIGMA">      0.02000000</i>
  <i type="logical" name="LWAVE"> F  </i>
  <i type="logical" name="LCHARG"> F  </i>
  <i type="string" name="GGA">Ps</i>
 </incar>
 <primitive_cell>
  <structure name="primitive_cell" >
   <crystal>
    <varray name="basis" >
     <v>      10.86914512      -0.00000000      -0.00000000 </v>
     <v>      -0.00000000      10.86914512       0.00000000 </v>
     <v>       0.00000000       0.00000000      10.86914512 </v>
    </varray>
    <i name="volume">   1284.06249692 </i>
    <varray name="rec_basis" >
     <v>       0.09200356       0.00000000      -0.00000000 </v>
     <v>       0.00000000       0.09200356      -0.00000000 </v>
     <v>       0.00000000      -0.00000000       0.09200356 </v>
    </varray>
   </crystal>
   <varray name="positions" >
    <v>       0.25092004       0.25000000       0.25000000 </v>
    <v>       0.75000000       0.25000000       0.25000000 </v>
    <v>       0.25000000       0.75000000       0.25000000 </v>
    <v>       0.75000000       0.75000000       0.25000000 </v>
    <v>       0.25000000       0.25000000       0.75000000 </v>
    <v>       0.75000000       0.25000000       0.75000000 </v>
    <v>       0.25000000       0.75000000       0.75000000 </v>
    <v>       0.75000000       0.75000000       0.75000000 </v>
    <v>       0.25000000       0.99907996       0.00000000 </v>
    <v>       0.75000000       1.00000000       1.00000000 </v>
    <v>       0.25000000       0.50000000       0.00000000 </v>
    <v>       0.75000000       0.50000000       1.00000000 </v>
    <v>       0.25000000       0.00000000       0.50000000 </v>
    <v>       0.75000000       1.00000000       0.50000000 </v>
    <v>       0.25000000       0.50000000       0.50000000 </v>
    <v>       0.75000000       0.50000000       0.50000000 </v>
    <v>       1.00000000       0.25000000       0.00000000 </v>
    <v>       0.50000000       0.25000000       1.00000000 </v>
    <v>       1.00000000       0.75000000       0.00000000 </v>
    <v>       0.50000000       0.75000000       0.00000000 </v>
    <v>       0.00000000       0.25000000       0.50000000 </v>
    <v>       0.50000000       0.25000000       0.50000000 </v>
    <v>       1.00000000       0.75000000       0.50000000 </v>
    <v>       0.50000000       0.75000000       0.50000000 </v>
    <v>       0.00000000       0.00000000       0.25000000 </v>
    <v>       0.50000000       1.00000000       0.25000000 </v>
    <v>       1.00000000       0.50000000       0.25000000 </v>
    <v>       0.50000000       0.50000000       0.25000000 </v>
    <v>       0.00000000       0.00000000       0.75000000 </v>
    <v>       0.50000000       0.00000000       0.75000000 </v>
    <v>       0.00000000       0.50000000       0.75000000 </v>
    <v>       0.50000000       0.50000000       0.75000000 </v>
    <v>       0.37500000       0.37500000       0.37500000 </v>
    <v>       0.87500000       0.37500000       0.37500000 </v>
    <v>       0.37500000       0.87500000       0.37500000 </v>
    <v>       0.87500000       0.87500000       0.37500000 </v>
    <v>       0.37500000       0.37500000       0.87500000 </v>
    <v>       0.87500000       0.37500000       0.87500000 </v>
    <v>       0.37500000       0.87500000       0.87500000 </v>
    <v>       0.87500000       0.87500000       0.87500000 </v>
    <v>       0.37500000       0.12500000       0.12500000 </v>
    <v>       0.87500000       0.12500000       0.12500000 </v>
    <v>       0.37500000       0.62500000       0.12500000 </v>
    <v>       0.87500000       0.62500000       0.12500000 </v>
    <v>       0.37500000       0.12500000       0.62500000 </v>
    <v>       0.87500000       0.12500000       0.62500000 </v>
    <v>       0.37500000       0.62500000       0.62500000 </v>
    <v>       0.87500000       0.62500000       0.62500000 </v>
    <v>       0.12500000       0.37500000       0.12500000 </v>
    <v>       0.62500000       0.37500000       0.12500000 </v>
    <v>       0.12500000       0.87500000       0.12500000 </v>
    <v>       0.62500000       0.87500000       0.12500000 </v>
    <v>       0.12500000       0.37500000       0.62500000 </v>
    <v>       0.62500000       0.37500000       0.62500000 </v>
    <v>       0.12500000       0.87500000       0.62500000 </v>
    <v>       0.62500000       0.87500000       0.62500000 </v>
    <v>       0.12500000       0.12500000       0.37500000 </v>
    <v>       0.62500000       0.12500000       0.37500000 </v>
    <v>       0.12500000       0.62500000       0.37500000 </v>
    <v>       0.62500000       0.62500000       0.37500000 </v>
    <v>       0.12500000       0.12500000       0.87500000 </v>
    <v>       0.62500000       0.12500000       0.87500000 </v>
    <v>       0.12500000       0.62500000       0.87500000 </v>
    <v>       0.62500000       0.62500000       0.87500000 </v>
   </varray>
  </structure>
  <varray name="primitive_index" >
   <v type="int" >        1 </v>
   <v type="int" >        2 </v>
   <v type="int" >        3 </v>
   <v type="int" >        4 </v>
   <v type="int" >        5 </v>
   <v type="int" >        6 </v>
   <v type="int" >        7 </v>
   <v type="int" >        8 </v>
   <v type="int" >        9 </v>
   <v type="int" >       10 </v>
   <v type="int" >       11 </v>
   <v type="int" >       12 </v>
   <v type="int" >       13 </v>
   <v type="int" >       14 </v>
   <v type="int" >       15 </v>
   <v type="int" >       16 </v>
   <v type="int" >       17 </v>
   <v type="int" >       18 </v>
   <v type="int" >       19 </v>
   <v type="int" >       20 </v>
   <v type="int" >       21 </v>
   <v type="int" >       22 </v>
   <v type="int" >       23 </v>
   <v type="int" >       24 </v>
   <v type="int" >       25 </v>
   <v type="int" >       26 </v>
   <v type="int" >       27 </v>
   <v type="int" >       28 </v>
   <v type="int" >       29 </v>
   <v type="int" >       30 </v>
   <v type="int" >       31 </v>
   <v type="int" >       32 </v>
   <v type="int" >       33 </v>
   <v type="int" >       34 </v>
   <v type="int" >       35 </v>
   <v type="int" >       36 </v>
   <v type="int" >       37 </v>
   <v type="int" >       38 </v>
   <v type="int" >       39 </v>
   <v type="int" >       40 </v>
   <v type="int" >       41 </v>
   <v type="int" >       42 </v>
   <v type="int" >       43 </v>
   <v type="int" >       44 </v>
   <v type="int" >       45 </v>
   <v type="int" >       46 </v>
   <v type="int" >       47 </v>
   <v type="int" >       48 </v>
   <v type="int" >       49 </v>
   <v type="int" >       50 </v>
   <v type="int" >       51 </v>
   <v type="int" >       52 </v>
   <v type="int" >       53 </v>
   <v type="int" >       54 </v>
   <v type="int" >       55 </v>
   <v type="int" >       56 </v>
   <v type="int" >       57 </v>
   <v type="int" >       58 </v>
   <v type="int" >       59 </v>
   <v type="int" >       60 </v>
   <v type="int" >       61 </v>
   <v type="int" >       62 </v>
   <v type="int" >       63 </v>
   <v type="int" >       64 </v>
  </varray>
 </primitive_cell>
 <kpoints>
  <generation param="Gamma">
   <v type="int" name="divisions">       2        2        2 </v>
   <v name="usershift">      0.00000000       0.00000000       0.00000000 </v>
   <v name="genvec1">      0.50000000      -0.00000000       0.00000000 </v>
   <v name="genvec2">     -0.00000000       0.50000000       0.00000000 </v>
   <v name="genvec3">     -0.00000000       0.00000000       0.50000000 </v>
   <v name="shift">      0.00000000       0.00000000       0.00000000 </v>
  </generation>
  <varray name="kpointlist" >
   <v>       0.00000000       0.00000000       0.00000000 </v>
   <v>       0.50000000       0.00000000       0.00000000 </v>
   <v>      -0.00000000       0.50000000       0.00000000 </v>
   <v>       0.00000000      -0.00000000       0.50000000 </v>
   <v>       0.50000000       0.50000000       0.00000000 </v>
   <v>       0.00000000       0.50000000       0.50000000 </v>
   <v>       0.50000000      -0.00000000       0.50000000 </v>
   <v>       0.50000000       0.50000000       0.50000000 </v>
  </varray>
  <varray name="weights" >
   <v>       0.12500000 </v>
   <v>       0.12500000 </v>
   <v>       0.12500000 </v>
   <v>       0.12500000 </v>
   <v>       0.12500000 </v>
   <v>       0.12500000 </v>
   <v>       0.12500000 </v>
   <v>       0.12500000 </v>
  </varray>
 </kpoints>
 <parameters>
  <separator name="general" >
   <i type="string" name="SYSTEM">unknown system</i>
   <i type="logical" name="LCOMPAT"> F  </i>
  </separator>
  <separator name="electronic" >
   <i type="string" name="PREC">accura</i>
   <i name="ENMAX">    318.00000000</i>
   <i name="ENAUG">    322.06900000</i>
   <i name="EDIFF">      0.00000001</i>
   <i type="int" name="IALGO">    38</i>
   <i type="int" name="IWAVPR">    10</i>
   <i type="int" name="NBANDS">   168</i>
   <i type="int" name="NBANDSLOW">    -1</i>
   <i type="int" name="NBANDSHIGH">    -1</i>
   <i name="NELECT">    256.00000000</i>
   <i type="int" name="TURBO">     0</i>
   <i type="int" name="IRESTART">     0</i>
   <i type="int" name="NREBOOT">     0</i>
   <i type="int" name="NMIN">     0</i>
   <i name="EREF">      0.00000000</i>
   <separator name="electronic smearing" >
    <i type="int" name="ISMEAR">     0</i>
    <i name="SIGMA">      0.02000000</i>
    <i name="KSPACING">      0.50000000</i>
    <i type="logical" name="KGAMMA"> T  </i>
    <i type="logical" name="KBLOWUP"> T  </i>
   </separator>
   <separator name="electronic projectors" >
    <i type="logical" name="LREAL"> F  </i>
    <v name="ROPT">      0.00000000</v>
    <i type="int" name="LMAXPAW">  -100</i>
    <i type="int" name="LMAXMIX">     2</i>
    <i type="logical" name="NLSPLINE"> F  </i>
   </separator>
   <separator name="electronic startup" >
    <i type="int" name="ISTART">     0</i>
    <i type="int" name="ICHARG">     2</i>
    <i type="int" name="INIWAV">     1</i>
   </separator>
   <separator name="electronic spin" >
    <i type="int" name="ISPIN">     1</i>
    <i type="logical" name="LNONCOLLINEAR"> F  </i>
    <v name="MAGMOM">      1.00000000      1.00000000      1.00000000      1.00000000      1.00000000      1.00000000      1.00000000      1.00000000      1.00000000      1.00000000      1.00000000      1.00000000      1.00000000      1.00000000      1.00000000      1.00000000      1.00000000      1.00000000      1.00000000      1.00000000
      1.00000000      1.00000000      1.00000000      1.00000000      1.00000000      1.00000000      1.00000000      1.00000000      1.00000000      1.00000000      1.00000000      1.00000000      1.00000000      1.00000000      1.00000000      1.00000000      1.00000000      1.00000000      1.00000000      1.00000000
      1.00000000      1.00000000      1.00000000      1.00000000      1.00000000      1.00000000      1.00000000      1.00000000      1.00000000      1.00000000      1.00000000      1.00000000      1.00000000      1.00000000      1.00000000      1.00000000      1.00000000      1.00000000      1.00000000      1.00000000
      1.00000000      1.00000000      1.00000000      1.00000000</v>
    <i name="NUPDOWN">     -1.00000000</i>
    <i type="logical" name="LSORBIT"> F  </i>
    <v name="SAXIS">      0.00000000      0.00000000      1.00000000</v>
    <i type="logical" name="LSPIRAL"> F  </i>
    <v name="QSPIRAL">      0.00000000      0.00000000      0.00000000</v>
    <i type="logical" name="LZEROZ"> F  </i>
   </separator>
   <separator name="electronic exchange-correlation" >
    <i type="logical" name="LASPH"> F  </i>
    <i type="logical" name="LMETAGGA"> F  </i>
   </separator>
   <separator name="electronic convergence" >
    <i type="int" name="NELM">    60</i>
    <i type="int" name="NELMDL">    -5</i>
    <i type="int" name="NELMIN">     5</i>
    <i name="ENINI">    318.00000000</i>
    <separator name="electronic convergence detail" >
     <i type="logical" name="LDIAG"> T  </i>
     <i type="logical" name="LSUBROT"> F  </i>
     <i name="WEIMIN">      0.00000000</i>
     <i name="EBREAK">      0.00000000</i>
     <i name="DEPER">      0.30000000</i>
     <i type="int" name="NRMM">     4</i>
     <i name="TIME">      0.40000000</i>
    </separator>
   </separator>
   <separator name="electronic mixer" >
    <i name="AMIX">      0.40000000</i>
    <i name="BMIX">      1.00000000</i>
    <i name="AMIN">      0.10000000</i>
    <i name="AMIX_MAG">      1.60000000</i>
    <i name="BMIX_MAG">      1.00000000</i>
    <separator name="electronic mixer details" >
     <i type="int" name="IMIX">     4</i>
     <i type="logical" name="MIXFIRST"> F  </i>
     <i type="int" name="MAXMIX">   -45</i>
     <i name="WC">    100.00000000</i>
     <i type="int" name="INIMIX">     1</i>
     <i type="int" name="MIXPRE">     1</i>
     <i type="int" name="MREMOVE">     5</i>
    </separator>
   </separator>
   <separator name="electronic dipolcorrection" >
    <i type="logical" name="LDIPOL"> F  </i>
    <i type="logical" name="LMONO"> F  </i>
    <i type="int" name="IDIPOL">     0</i>
    <i name="EPSILON">      1.00000000</i>
    <v name="DIPOL">   -100.00000000   -100.00000000   -100.00000000</v>
    <i name="EFIELD">      0.00000000</i>
   </separator>
  </separator>
  <separator name="grids" >
   <i type="int" name="NGX">    64</i>
   <i type="int" name="NGY">    64</i>
   <i type="int" name="NGZ">    64</i>
   <i type="int" name="NGXF">   128</i>
   <i type="int" name="NGYF">   128</i>
   <i type="int" name="NGZF">   128</i>
   <i type="logical" name="ADDGRID"> T  </i>
  </separator>
  <separator name="ionic" >
   <i type="int" name="NSW">     0</i>
   <i type="int" name="IBRION">    -1</i>
   <i type="int" name="MDALGO">     0</i>
   <i type="int" name="ISIF">     2</i>
   <i name="PSTRESS">      0.00000000</i>
   <i name="EDIFFG">      0.00000010</i>
   <i type="int" name="NFREE">     0</i>
   <i name="POTIM">      0.50000000</i>
   <i name="SMASS">     -3.00000000</i>
   <i name="SCALEE">      1.00000000</i>
  </separator>
  <separator name="ionic md" >
   <i name="TEBEG">      0.00010000</i>
   <i name="TEEND">      0.00010000</i>
   <i type="int" name="NBLOCK">     1</i>
   <i type="int" name="KBLOCK">     1</i>
   <i type="int" name="NPACO">   256</i>
   <i name="APACO">     10.00000000</i>
  </separator>
  <separator name="symmetry" >
   <i type="int" name="ISYM">     2</i>
   <i name="SYMPREC">      0.00001000</i>
  </separator>
  <separator name="dos" >
   <i type="int" name="LORBIT">     0</i>
   <v name="RWIGS">     -1.00000000</v>
   <i type="int" name="NEDOS">   301</i>
   <i name="EMIN">     10.00000000</i>
   <i name="EMAX">    -10.00000000</i>
   <i name="EFERMI">      0.00000000</i>
  </separator>
  <separator name="writing" >
   <i type="int" name="NWRITE">     2</i>
   <i type="logical" name="LWAVE"> F  </i>
   <i type="logical" name="LDOWNSAMPLE"> F  </i>
   <i type="logical" name="LCHARG"> F  </i>
   <i type="logical" name="LPARD"> F  </i>
   <i type="logical" name="LVTOT"> F  </i>
   <i type="logical" name="LVHAR"> F  </i>
   <i type="logical" name="LELF"> F  </i>
   <i type="logical" name="LOPTICS"> F  </i>
   <v name="STM">      0.00000000      0.00000000      0.00000000      0.00000000      0.00000000      0.00000000      0.00000000</v>
  </separator>
  <separator name="performance" >
   <i type="int" name="NPAR">     8</i>
   <i type="int" name="NSIM">     4</i>
   <i type="int" name="NBLK">    -1</i>
   <i type="logical" name="LPLANE"> T  </i>
   <i type="logical" name="LSCALAPACK"> T  </i>
   <i type="logical" name="LSCAAWARE"> F  </i>
   <i type="logical" name="LSCALU"> F  </i>
   <i type="logical" name="LASYNC"> F  </i>
   <i type="logical" name="LORBITALREAL"> F  </i>
  </separator>
  <separator name="miscellaneous" >
   <i type="int" name="IDIOT">     3</i>
   <i type="int" name="PHON_NSTRUCT">    -1</i>
   <i type="logical" name="LMUSIC"> F  </i>
   <v name="POMASS">     28.08500000</v>
   <v name="DARWINR">      0.00000000</v>
   <v name="DARWINV">      1.00000000</v>
   <i type="logical" name="LCORR"> T  </i>
  </separator>
  <i type="logical" name="GGA_COMPAT"> T  </i>
  <i type="logical" name="LBERRY"> F  </i>
  <i type="int" name="ICORELEVEL">     0</i>
  <i type="logical" name="LDAU"> F  </i>
  <i type="int" name="I_CONSTRAINED_M">     0</i>
  <separator name="electronic exchange-correlation" >
   <i type="string" name="GGA">PS</i>
   <i type="int" name="VOSKOWN">     0</i>
   <i type="logical" name="LHFCALC"> F  </i>
   <i type="string" name="PRECFOCK"></i>
   <i type="logical" name="LSYMGRAD"> F  </i>
   <i type="logical" name="LHFONE"> F  </i>
   <i type="logical" name="LRHFCALC"> F  </i>
   <i type="logical" name="LTHOMAS"> F  </i>
   <i type="logical" name="LMODELHF"> F  </i>
   <i type="logical" name="LFOCKACE"> F  </i>
   <i name="ENCUT4O">     -1.00000000</i>
   <i type="int" name="EXXOEP">     0</i>
   <i type="int" name="FOURORBIT">     0</i>
   <i name="AEXX">      0.00000000</i>
   <i name="HFALPHA">      0.00000000</i>
   <i name="MCALPHA">      0.00000000</i>
   <i name="ALDAX">      1.00000000</i>
   <i name="AGGAX">      1.00000000</i>
   <i name="ALDAC">      1.00000000</i>
   <i name="AGGAC">      1.00000000</i>
   <i type="int" name="NKREDX">     1</i>
   <i type="int" name="NKREDY">     1</i>
   <i type="int" name="NKREDZ">     1</i>
   <i type="logical" name="SHIFTRED"> F  </i>
   <i type="logical" name="ODDONLY"> F  </i>
   <i type="logical" name="EVENONLY"> F  </i>
   <i type="int" name="LMAXFOCK">     0</i>
   <i type="int" name="NMAXFOCKAE">     0</i>
   <i type="logical" name="LFOCKAEDFT"> F  </i>
   <i name="HFSCREEN">      0.00000000</i>
   <i name="HFSCREENC">      0.00000000</i>
   <i type="int" name="NBANDSGWLOW">     0</i>
  </separator>
  <separator name="vdW DFT" >
   <i type="logical" name="LUSE_VDW"> F  </i>
   <i name="Zab_VDW">     -0.84910000</i>
   <i name="PARAM1">      0.12340000</i>
   <i name="PARAM2">      1.00000000</i>
   <i name="PARAM3">      0.00000000</i>
  </separator>
  <separator name="model GW" >
   <i type="int" name="MODEL_GW">     0</i>
   <i name="MODEL_EPS0">     12.03808591</i>
   <i name="MODEL_ALPHA">      1.00000000</i>
  </separator>
  <separator name="linear response parameters" >
   <i type="logical" name="LEPSILON"> F  </i>
   <i type="logical" name="LRPA"> F  </i>
   <i type="logical" name="LNABLA"> F  </i>
   <i type="logical" name="LVEL"> F  </i>
   <i name="CSHIFT">      0.10000000</i>
   <i name="OMEGAMAX">     -1.00000000</i>
   <i name="DEG_THRESHOLD">      0.00200000</i>
   <i name="RTIME">     -0.10000000</i>
   <i name="WPLASMAI">      0.00000000</i>
   <v name="DFIELD">      0.00000000      0.00000000      0.00000000</v>
   <v name="WPLASMA">      0.00000000      0.00000000      0.00000000      0.00000000      0.00000000      0.00000000      0.00000000      0.00000000      0.00000000</v>
  </separator>
  <separator name="orbital magnetization" >
   <i type="logical" name="NUCIND"> F  </i>
   <v name="MAGPOS">      0.00000000      0.00000000      0.00000000</v>
   <i type="logical" name="LNICSALL"> T  </i>
   <i type="logical" name="ORBITALMAG"> F  </i>
   <i type="logical" name="LMAGBLOCH"> F  </i>
   <i type="logical" name="LCHIMAG"> F  </i>
   <i type="logical" name="LGAUGE"> T  </i>
   <i type="int" name="MAGATOM">     0</i>
   <v name="MAGDIPOL">      0.00000000      0.00000000      0.00000000</v>
   <v name="AVECCONST">      0.00000000      0.00000000      0.00000000</v>
  </separator>
  <separator name="response functions" >
   <i type="logical" name="LFINITE_TEMPERATURE"> F  </i>
   <i type="logical" name="LADDER"> F  </i>
   <i type="logical" name="LRPAFORCE"> F  </i>
   <i type="logical" name="LFXC"> F  </i>
   <i type="logical" name="LHARTREE"> T  </i>
   <i type="int" name="IBSE">     0</i>
   <v type="int" name="KPOINT">    -1     0     0     0</v>
   <i type="logical" name="LTCTC"> F  </i>
   <i type="logical" name="LTCTE"> F  </i>
   <i type="logical" name="LTETE"> F  </i>
   <i type="logical" name="LTRIPLET"> F  </i>
   <i type="logical" name="LFXCEPS"> F  </i>
   <i type="logical" name="LFXHEG"> F  </i>
   <i type="int" name="NATURALO">     2</i>
   <i type="logical" name="LHOLEGF"> F  </i>
   <i type="logical" name="L2ORDER"> F  </i>
   <i type="logical" name="LDMP1"> F  </i>
   <i type="logical" name="LMP2LT"> F  </i>
   <i type="logical" name="LSMP2LT"> F  </i>
   <i type="logical" name="LGWLF"> F  </i>
   <i name="ENCUTGW">     -2.00000000</i>
   <i name="ENCUTGWSOFT">     -2.00000000</i>
   <i name="ENCUTLF">     -1.00000000</i>
   <i type="logical" name="LESF_SPLINES"> F  </i>
   <i type="int" name="LMAXMP2">    -1</i>
   <i name="SCISSOR">      0.00000000</i>
   <i type="int" name="NOMEGA">     0</i>
   <i type="int" name="NOMEGAR">     0</i>
   <i type="int" name="NBANDSGW">    -1</i>
   <i type="int" name="NBANDSO">    -1</i>
   <i type="int" name="NBANDSV">    -1</i>
   <i type="int" name="NELMGW">     1</i>
   <i type="int" name="NELMHF">     1</i>
   <i type="int" name="DIM">     3</i>
   <i type="int" name="IESPILON">     4</i>
   <i type="int" name="ANTIRES">     0</i>
   <i name="OMEGAMAX">    -30.00000000</i>
   <i name="OMEGAMIN">    -30.00000000</i>
   <i name="OMEGATL">   -200.00000000</i>
   <i type="int" name="OMEGAGRID">     0</i>
   <i name="CSHIFT">     -0.10000000</i>
   <i type="logical" name="LSELFENERGY"> F  </i>
   <i type="logical" name="LSPECTRAL"> F  </i>
   <i type="logical" name="LSPECTRALGW"> F  </i>
   <i type="logical" name="LSINGLES"> F  </i>
   <i type="logical" name="LFERMIGW"> F  </i>
   <i type="logical" name="ODDONLYGW"> F  </i>
   <i type="logical" name="EVENONLYGW"> F  </i>
   <i type="int" name="NKREDLFX">     1</i>
   <i type="int" name="NKREDLFY">     1</i>
   <i type="int" name="NKREDLFZ">     1</i>
   <i type="int" name="MAXMEM">  2800</i>
   <i type="int" name="TELESCOPE">     0</i>
   <i type="int" name="NTAUPAR">    -1</i>
   <i type="int" name="NOMEGAPAR">    -1</i>
   <i name="DAMP_NEWTON">      0.80000001</i>
   <i name="LAMBDA">      1.00000000</i>
  </separator>
  <separator name="External order field" >
   <i name="OFIELD_KAPPA">      0.00000000</i>
   <v name="OFIELD_K">      0.00000000      0.00000000      0.00000000</v>
   <i name="OFIELD_Q6_NEAR">      0.00000000</i>
   <i name="OFIELD_Q6_FAR">      0.00000000</i>
   <i name="OFIELD_A">      0.00000000</i>
  </separator>
  <separator name="optional k-points parameters" >
   <i type="int" name="KPOINTS_OPT_MODE">     1</i>
   <i type="logical" name="LKPOINTS_OPT"> F  </i>
  </separator>
 </parameters>
 <atominfo>
  <atoms>      64 </atoms>
  <types>       1 </types>
  <array name="atoms" >
   <dimension dim="1">ion</dimension>
   <field type="string">element</field>
   <field type="int">atomtype</field>
   <set>
    <rc><c>Si</c><c>   1</c></rc>
    <rc><c>Si</c><c>   1</c></rc>
    <rc><c>Si</c><c>   1</c></rc>
    <rc><c>Si</c><c>   1</c></rc>
    <rc><c>Si</c><c>   1</c></rc>
    <rc><c>Si</c><c>   1</c></rc>
    <rc><c>Si</c><c>   1</c></rc>
    <rc><c>Si</c><c>   1</c></rc>
    <rc><c>Si</c><c>   1</c></rc>
    <rc><c>Si</c><c>   1</c></rc>
    <rc><c>Si</c><c>   1</c></rc>
    <rc><c>Si</c><c>   1</c></rc>
    <rc><c>Si</c><c>   1</c></rc>
    <rc><c>Si</c><c>   1</c></rc>
    <rc><c>Si</c><c>   1</c></rc>
    <rc><c>Si</c><c>   1</c></rc>
    <rc><c>Si</c><c>   1</c></rc>
    <rc><c>Si</c><c>   1</c></rc>
    <rc><c>Si</c><c>   1</c></rc>
    <rc><c>Si</c><c>   1</c></rc>
    <rc><c>Si</c><c>   1</c></rc>
    <rc><c>Si</c><c>   1</c></rc>
    <rc><c>Si</c><c>   1</c></rc>
    <rc><c>Si</c><c>   1</c></rc>
    <rc><c>Si</c><c>   1</c></rc>
    <rc><c>Si</c><c>   1</c></rc>
    <rc><c>Si</c><c>   1</c></rc>
    <rc><c>Si</c><c>   1</c></rc>
    <rc><c>Si</c><c>   1</c></rc>
    <rc><c>Si</c><c>   1</c></rc>
    <rc><c>Si</c><c>   1</c></rc>
    <rc><c>Si</c><c>   1</c></rc>
    <rc><c>Si</c><c>   1</c></rc>
    <rc><c>Si</c><c>   1</c></rc>
    <rc><c>Si</c><c>   1</c></rc>
    <rc><c>Si</c><c>   1</c></rc>
    <rc><c>Si</c><c>   1</c></rc>
    <rc><c>Si</c><c>   1</c></rc>
    <rc><c>Si</c><c>   1</c></rc>
    <rc><c>Si</c><c>   1</c></rc>
    <rc><c>Si</c><c>   1</c></rc>
    <rc><c>Si</c><c>   1</c></rc>
    <rc><c>Si</c><c>   1</c></rc>
    <rc><c>Si</c><c>   1</c></rc>
    <rc><c>Si</c><c>   1</c></rc>
    <rc><c>Si</c><c>   1</c></rc>
    <rc><c>Si</c><c>   1</c></rc>
    <rc><c>Si</c><c>   1</c></rc>
    <rc><c>Si</c><c>   1</c></rc>
    <rc><c>Si</c><c>   1</c></rc>
    <rc><c>Si</c><c>   1</c></rc>
    <rc><c>Si</c><c>   1</c></rc>
    <rc><c>Si</c><c>   1</c></rc>
    <rc><c>Si</c><c>   1</c></rc>
    <rc><c>Si</c><c>   1</c></rc>
    <rc><c>Si</c><c>   1</c></rc>
    <rc><c>Si</c><c>   1</c></rc>
    <rc><c>Si</c><c>   1</c></rc>
    <rc><c>Si</c><c>   1</c></rc>
    <rc><c>Si</c><c>   1</c></rc>
    <rc><c>Si</c><c>   1</c></rc>
    <rc><c>Si</c><c>   1</c></rc>
    <rc><c>Si</c><c>   1</c></rc>
    <rc><c>Si</c><c>   1</c></rc>
   </set>
  </array>
  <array name="atomtypes" >
   <dimension dim="1">type</dimension>
   <field type="int">atomspertype</field>
   <field type="string">element</field>
   <field>mass</field>
   <field>valence</field>
   <field type="string">pseudopotential</field>
   <set>
    <rc><c>  64</c><c>Si</c><c>     28.08500000</c><c>      4.00000000</c><c>  PAW_PBE Si 05Jan2001                  </c></rc>
   </set>
  </array>
 </atominfo>
 <structure name="initialpos" >
  <crystal>
   <varray name="basis" >
    <v>      10.86914512      -0.00000000      -0.00000000 </v>
    <v>      -0.00000000      10.86914512       0.00000000 </v>
    <v>       0.00000000       0.00000000      10.86914512 </v>
   </varray>
   <i name="volume">   1284.06249692 </i>
   <varray name="rec_basis" >
    <v>       0.09200356       0.00000000      -0.00000000 </v>
    <v>       0.00000000       0.09200356      -0.00000000 </v>
    <v>       0.00000000      -0.00000000       0.09200356 </v>
   </varray>
  </crystal>
  <varray name="positions" >
   <v>       0.25092004       0.25000000       0.25000000 </v>
   <v>       0.75000000       0.25000000       0.25000000 </v>
   <v>       0.25000000       0.75000000       0.25000000 </v>
   <v>       0.75000000       0.75000000       0.25000000 </v>
   <v>       0.25000000       0.25000000       0.75000000 </v>
   <v>       0.75000000       0.25000000       0.75000000 </v>
   <v>       0.25000000       0.75000000       0.75000000 </v>
   <v>       0.75000000       0.75000000       0.75000000 </v>
   <v>       0.25000000       0.99907996       0.00000000 </v>
   <v>       0.75000000       0.00000000       0.00000000 </v>
   <v>       0.25000000       0.50000000       0.00000000 </v>
   <v>       0.75000000       0.50000000       0.00000000 </v>
   <v>       0.25000000       0.00000000       0.50000000 </v>
   <v>       0.75000000       0.00000000       0.50000000 </v>
   <v>       0.25000000       0.50000000       0.50000000 </v>
   <v>       0.75000000       0.50000000       0.50000000 </v>
   <v>       0.00000000       0.25000000       0.00000000 </v>
   <v>       0.50000000       0.25000000       0.00000000 </v>
   <v>       0.00000000       0.75000000       0.00000000 </v>
   <v>       0.50000000       0.75000000       0.00000000 </v>
   <v>       0.00000000       0.25000000       0.50000000 </v>
   <v>       0.50000000       0.25000000       0.50000000 </v>
   <v>       0.00000000       0.75000000       0.50000000 </v>
   <v>       0.50000000       0.75000000       0.50000000 </v>
   <v>       0.00000000       0.00000000       0.25000000 </v>
   <v>       0.50000000       0.00000000       0.25000000 </v>
   <v>       0.00000000       0.50000000       0.25000000 </v>
   <v>       0.50000000       0.50000000       0.25000000 </v>
   <v>       0.00000000       0.00000000       0.75000000 </v>
   <v>       0.50000000       0.00000000       0.75000000 </v>
   <v>       0.00000000       0.50000000       0.75000000 </v>
   <v>       0.50000000       0.50000000       0.75000000 </v>
   <v>       0.37500000       0.37500000       0.37500000 </v>
   <v>       0.87500000       0.37500000       0.37500000 </v>
   <v>       0.37500000       0.87500000       0.37500000 </v>
   <v>       0.87500000       0.87500000       0.37500000 </v>
   <v>       0.37500000       0.37500000       0.87500000 </v>
   <v>       0.87500000       0.37500000       0.87500000 </v>
   <v>       0.37500000       0.87500000       0.87500000 </v>
   <v>       0.87500000       0.87500000       0.87500000 </v>
   <v>       0.37500000       0.12500000       0.12500000 </v>
   <v>       0.87500000       0.12500000       0.12500000 </v>
   <v>       0.37500000       0.62500000       0.12500000 </v>
   <v>       0.87500000       0.62500000       0.12500000 </v>
   <v>       0.37500000       0.12500000       0.62500000 </v>
   <v>       0.87500000       0.12500000       0.62500000 </v>
   <v>       0.37500000       0.62500000       0.62500000 </v>
   <v>       0.87500000       0.62500000       0.62500000 </v>
   <v>       0.12500000       0.37500000       0.12500000 </v>
   <v>       0.62500000       0.37500000       0.12500000 </v>
   <v>       0.12500000       0.87500000       0.12500000 </v>
   <v>       0.62500000       0.87500000       0.12500000 </v>
   <v>       0.12500000       0.37500000       0.62500000 </v>
   <v>       0.62500000       0.37500000       0.62500000 </v>
   <v>       0.12500000       0.87500000       0.62500000 </v>
   <v>       0.62500000       0.87500000       0.62500000 </v>
   <v>       0.12500000       0.12500000       0.37500000 </v>
   <v>       0.62500000       0.12500000       0.37500000 </v>
   <v>       0.12500000       0.62500000       0.37500000 </v>
   <v>       0.62500000       0.62500000       0.37500000 </v>
   <v>       0.12500000       0.12500000       0.87500000 </v>
   <v>       0.62500000       0.12500000       0.87500000 </v>
   <v>       0.12500000       0.62500000       0.87500000 </v>
   <v>       0.62500000       0.62500000       0.87500000 </v>
  </varray>
 </structure>
 <calculation>
  <scstep>
   <time name="dav">    2.29    2.30</time>
   <time name="total">    2.34    2.35</time>
   <energy>
    <i name="alphaZ">    107.38120932 </i>
    <i name="ewald">  -7307.87536690 </i>
    <i name="hartreedc">   -353.25093063 </i>
    <i name="XCdc">   -558.85370799 </i>
    <i name="pawpsdc">   5598.62625415 </i>
    <i name="pawaedc">  -4492.17844134 </i>
    <i name="eentropy">     -0.00326200 </i>
    <i name="bandstr">    892.39832146 </i>
    <i name="atom">   6564.76702419 </i>
    <i name="e_fr_energy">    451.01110026 </i>
    <i name="e_wo_entrp">    451.01436226 </i>
    <i name="e_0_energy">    451.01273126 </i>
   </energy>
  </scstep>
  <scstep>
   <time name="dav">    2.62    2.64</time>
   <time name="total">    2.62    2.64</time>
   <energy>
    <i name="e_fr_energy">   -322.06819581 </i>
    <i name="e_wo_entrp">   -322.06819581 </i>
    <i name="e_0_energy">   -322.06819581 </i>
   </energy>
  </scstep>
  <scstep>
   <time name="dav">    2.67    2.68</time>
   <time name="total">    2.67    2.68</time>
   <energy>
    <i name="e_fr_energy">   -373.41432507 </i>
    <i name="e_wo_entrp">   -373.41432507 </i>
    <i name="e_0_energy">   -373.41432507 </i>
   </energy>
  </scstep>
  <scstep>
   <time name="dav">    2.62    2.63</time>
   <time name="total">    2.62    2.64</time>
   <energy>
    <i name="e_fr_energy">   -374.59871027 </i>
    <i name="e_wo_entrp">   -374.59871027 </i>
    <i name="e_0_energy">   -374.59871027 </i>
   </energy>
  </scstep>
  <scstep>
   <time name="dav">    2.59    2.60</time>
   <time name="total">    2.67    2.69</time>
   <energy>
    <i name="e_fr_energy">   -374.64062075 </i>
    <i name="e_wo_entrp">   -374.64062075 </i>
    <i name="e_0_energy">   -374.64062075 </i>
   </energy>
  </scstep>
  <scstep>
   <time name="dav">    2.52    2.54</time>
   <time name="total">    2.65    2.66</time>
   <energy>
    <i name="e_fr_energy">   -369.72156697 </i>
    <i name="e_wo_entrp">   -369.72156697 </i>
    <i name="e_0_energy">   -369.72156697 </i>
   </energy>
  </scstep>
  <scstep>
   <time name="dav">    2.51    2.52</time>
   <time name="total">    2.63    2.65</time>
   <energy>
    <i name="e_fr_energy">   -367.49036246 </i>
    <i name="e_wo_entrp">   -367.49036246 </i>
    <i name="e_0_energy">   -367.49036246 </i>
   </energy>
  </scstep>
  <scstep>
   <time name="dav">    2.52    2.54</time>
   <time name="total">    2.65    2.66</time>
   <energy>
    <i name="e_fr_energy">   -367.49747909 </i>
    <i name="e_wo_entrp">   -367.49747909 </i>
    <i name="e_0_energy">   -367.49747909 </i>
   </energy>
  </scstep>
  <scstep>
   <time name="dav">    2.67    2.68</time>
   <time name="total">    2.79    2.81</time>
   <energy>
    <i name="e_fr_energy">   -367.49896551 </i>
    <i name="e_wo_entrp">   -367.49896551 </i>
    <i name="e_0_energy">   -367.49896551 </i>
   </energy>
  </scstep>
  <scstep>
   <time name="dav">    2.46    2.48</time>
   <time name="total">    2.59    2.60</time>
   <energy>
    <i name="e_fr_energy">   -367.49981970 </i>
    <i name="e_wo_entrp">   -367.49981970 </i>
    <i name="e_0_energy">   -367.49981970 </i>
   </energy>
  </scstep>
  <scstep>
   <time name="dav">    2.58    2.59</time>
   <time name="total">    2.70    2.72</time>
   <energy>
    <i name="e_fr_energy">   -367.49985878 </i>
    <i name="e_wo_entrp">   -367.49985878 </i>
    <i name="e_0_energy">   -367.49985878 </i>
   </energy>
  </scstep>
  <scstep>
   <time name="dav">    2.60    2.61</time>
   <time name="total">    2.72    2.74</time>
   <energy>
    <i name="e_fr_energy">   -367.49986106 </i>
    <i name="e_wo_entrp">   -367.49986106 </i>
    <i name="e_0_energy">   -367.49986106 </i>
   </energy>
  </scstep>
  <scstep>
   <time name="dav">    2.50    2.52</time>
   <time name="total">    2.63    2.64</time>
   <energy>
    <i name="e_fr_energy">   -367.49985999 </i>
    <i name="e_wo_entrp">   -367.49985999 </i>
    <i name="e_0_energy">   -367.49985999 </i>
   </energy>
  </scstep>
  <scstep>
   <time name="dav">    2.06    2.08</time>
   <time name="total">    2.19    2.20</time>
   <energy>
    <i name="e_fr_energy">   -367.49985988 </i>
    <i name="e_wo_entrp">   -367.49985988 </i>
    <i name="e_0_energy">   -367.49985988 </i>
   </energy>
  </scstep>
  <scstep>
   <time name="dav">    1.78    1.79</time>
   <time name="total">    1.83    1.84</time>
   <energy>
    <i name="alphaZ">    107.38120932 </i>
    <i name="ewald">  -7307.87536690 </i>
    <i name="hartreedc">   -468.78607703 </i>
    <i name="XCdc">   -539.35380144 </i>
    <i name="pawpsdc">  28474.89220595 </i>
    <i name="pawaedc"> -27375.31896046 </i>
    <i name="eentropy">     -0.00000000 </i>
    <i name="bandstr">    176.79390650 </i>
    <i name="atom">   6564.76702419 </i>
    <i name="e_fr_energy">   -367.49985987 </i>
    <i name="e_wo_entrp">   -367.49985987 </i>
    <i name="e_0_energy">   -367.49985987 </i>
   </energy>
  </scstep>
  <structure>
   <crystal>
    <varray name="basis" >
     <v>      10.86914512      -0.00000000      -0.00000000 </v>
     <v>      -0.00000000      10.86914512       0.00000000 </v>
     <v>       0.00000000       0.00000000      10.86914512 </v>
    </varray>
    <i name="volume">   1284.06249692 </i>
    <varray name="rec_basis" >
     <v>       0.09200356       0.00000000      -0.00000000 </v>
     <v>       0.00000000       0.09200356      -0.00000000 </v>
     <v>       0.00000000      -0.00000000       0.09200356 </v>
    </varray>
   </crystal>
   <varray name="positions" >
    <v>       0.25092004       0.25000000       0.25000000 </v>
    <v>       0.75000000       0.25000000       0.25000000 </v>
    <v>       0.25000000       0.75000000       0.25000000 </v>
    <v>       0.75000000       0.75000000       0.25000000 </v>
    <v>       0.25000000       0.25000000       0.75000000 </v>
    <v>       0.75000000       0.25000000       0.75000000 </v>
    <v>       0.25000000       0.75000000       0.75000000 </v>
    <v>       0.75000000       0.75000000       0.75000000 </v>
    <v>       0.25000000       0.99907996       0.00000000 </v>
    <v>       0.75000000       0.00000000       0.00000000 </v>
    <v>       0.25000000       0.50000000       0.00000000 </v>
    <v>       0.75000000       0.50000000       0.00000000 </v>
    <v>       0.25000000       0.00000000       0.50000000 </v>
    <v>       0.75000000       0.00000000       0.50000000 </v>
    <v>       0.25000000       0.50000000       0.50000000 </v>
    <v>       0.75000000       0.50000000       0.50000000 </v>
    <v>       0.00000000       0.25000000       0.00000000 </v>
    <v>       0.50000000       0.25000000       0.00000000 </v>
    <v>       0.00000000       0.75000000       0.00000000 </v>
    <v>       0.50000000       0.75000000       0.00000000 </v>
    <v>       0.00000000       0.25000000       0.50000000 </v>
    <v>       0.50000000       0.25000000       0.50000000 </v>
    <v>       0.00000000       0.75000000       0.50000000 </v>
    <v>       0.50000000       0.75000000       0.50000000 </v>
    <v>       0.00000000       0.00000000       0.25000000 </v>
    <v>       0.50000000       0.00000000       0.25000000 </v>
    <v>       0.00000000       0.50000000       0.25000000 </v>
    <v>       0.50000000       0.50000000       0.25000000 </v>
    <v>       0.00000000       0.00000000       0.75000000 </v>
    <v>       0.50000000       0.00000000       0.75000000 </v>
    <v>       0.00000000       0.50000000       0.75000000 </v>
    <v>       0.50000000       0.50000000       0.75000000 </v>
    <v>       0.37500000       0.37500000       0.37500000 </v>
    <v>       0.87500000       0.37500000       0.37500000 </v>
    <v>       0.37500000       0.87500000       0.37500000 </v>
    <v>       0.87500000       0.87500000       0.37500000 </v>
    <v>       0.37500000       0.37500000       0.87500000 </v>
    <v>       0.87500000       0.37500000       0.87500000 </v>
    <v>       0.37500000       0.87500000       0.87500000 </v>
    <v>       0.87500000       0.87500000       0.87500000 </v>
    <v>       0.37500000       0.12500000       0.12500000 </v>
    <v>       0.87500000       0.12500000       0.12500000 </v>
    <v>       0.37500000       0.62500000       0.12500000 </v>
    <v>       0.87500000       0.62500000       0.12500000 </v>
    <v>       0.37500000       0.12500000       0.62500000 </v>
    <v>       0.87500000       0.12500000       0.62500000 </v>
    <v>       0.37500000       0.62500000       0.62500000 </v>
    <v>       0.87500000       0.62500000       0.62500000 </v>
    <v>       0.12500000       0.37500000       0.12500000 </v>
    <v>       0.62500000       0.37500000       0.12500000 </v>
    <v>       0.12500000       0.87500000       0.12500000 </v>
    <v>       0.62500000       0.87500000       0.12500000 </v>
    <v>       0.12500000       0.37500000       0.62500000 </v>
    <v>       0.62500000       0.37500000       0.62500000 </v>
    <v>       0.12500000       0.87500000       0.62500000 </v>
    <v>       0.62500000       0.87500000       0.62500000 </v>
    <v>       0.12500000       0.12500000       0.37500000 </v>
    <v>       0.62500000       0.12500000       0.37500000 </v>
    <v>       0.12500000       0.62500000       0.37500000 </v>
    <v>       0.62500000       0.62500000       0.37500000 </v>
    <v>       0.12500000       0.12500000       0.87500000 </v>
    <v>       0.62500000       0.12500000       0.87500000 </v>
    <v>       0.12500000       0.62500000       0.87500000 </v>
    <v>       0.62500000       0.62500000       0.87500000 </v>
   </varray>
  </structure>
  <varray name="forces" >
   <v>      -0.13309082      -0.00186751      -0.00184640 </v>
   <v>       0.00010036      -0.00032695       0.00060400 </v>
   <v>      -0.00047407      -0.00187835       0.00186649 </v>
   <v>      -0.00002785      -0.00032580      -0.00060025 </v>
   <v>       0.00142331      -0.00186116       0.00185413 </v>
   <v>       0.00012516      -0.00032601      -0.00060321 </v>
   <v>      -0.00297542      -0.00187742      -0.00186394 </v>
   <v>       0.00030371      -0.00032653       0.00060223 </v>
   <v>      -0.00427654       0.13307684       0.00095430 </v>
   <v>      -0.00003883      -0.00040551       0.00007630 </v>
   <v>      -0.00426728       0.00076378      -0.00094150 </v>
   <v>      -0.00003463       0.00002997      -0.00007613 </v>
   <v>      -0.00426744      -0.00142362       0.00094085 </v>
   <v>      -0.00003527       0.00384907       0.00007552 </v>
   <v>      -0.00427752      -0.00100077      -0.00095417 </v>
   <v>      -0.00003857      -0.00030137      -0.00007676 </v>
   <v>       0.00371181      -0.00280095       0.00279644 </v>
   <v>       0.00001906      -0.00281474      -0.00279838 </v>
   <v>      -0.00154091      -0.00195326       0.00034800 </v>
   <v>       0.00219324      -0.00195437      -0.00035345 </v>
   <v>       0.00125617       0.00061492      -0.00177775 </v>
   <v>       0.00247927       0.00062743       0.00178726 </v>
   <v>       0.00092867      -0.00024992       0.00068108 </v>
   <v>      -0.00027466      -0.00024901      -0.00067974 </v>
   <v>       0.00281297       0.00612756      -0.00189565 </v>
   <v>       0.00281859       0.00240128      -0.00000984 </v>
   <v>       0.00193765      -0.00181181       0.00086468 </v>
   <v>       0.00195427       0.00190315       0.00103029 </v>
   <v>      -0.00061827       0.00366147      -0.00101926 </v>
   <v>      -0.00062515       0.00487572       0.00087574 </v>
   <v>       0.00024937       0.00064241      -0.00000036 </v>
   <v>       0.00025086      -0.00056237       0.00015333 </v>
   <v>       0.03274161       0.02278870       0.02279507 </v>
   <v>       0.00018326       0.00051912       0.00007129 </v>
   <v>      -0.00010924       0.00085886       0.00006408 </v>
   <v>       0.00047348      -0.00187622      -0.00000411 </v>
   <v>      -0.00017446       0.00049559       0.00000159 </v>
   <v>       0.00043146       0.00002979      -0.00003674 </v>
   <v>       0.02509593      -0.03223276      -0.02275670 </v>
   <v>       0.00016499       0.00078574      -0.00013554 </v>
   <v>       0.01009553      -0.05517480      -0.04541606 </v>
   <v>      -0.00042669       0.00016780      -0.00075186 </v>
   <v>      -0.00085595      -0.00025538      -0.00074645 </v>
   <v>       0.00000327      -0.00043447      -0.00050460 </v>
   <v>      -0.00092513       0.00010252      -0.00068100 </v>
   <v>      -0.00003432      -0.00233126      -0.00046426 </v>
   <v>       0.00183134      -0.00047629      -0.00046932 </v>
   <v>      -0.00044654      -0.00009208      -0.00053992 </v>
   <v>       0.03184094      -0.02231046       0.02274453 </v>
   <v>      -0.00029778      -0.00055734       0.00059020 </v>
   <v>      -0.02351681      -0.03282431       0.02341606 </v>
   <v>      -0.00011855       0.00030022       0.00066134 </v>
   <v>      -0.00076242      -0.00062788       0.00054853 </v>
   <v>      -0.00004557      -0.00007684       0.00048655 </v>
   <v>       0.00167203       0.00026262       0.00059392 </v>
   <v>      -0.00042870      -0.00235503       0.00052206 </v>
   <v>       0.03259193       0.02291379      -0.02206080 </v>
   <v>       0.00016649      -0.00174049      -0.00008870 </v>
   <v>      -0.00025654       0.00011540      -0.00019474 </v>
   <v>       0.00049402       0.00039379       0.00001347 </v>
   <v>       0.02188879      -0.03177464       0.02205930 </v>
   <v>       0.00056268       0.00076386       0.00019422 </v>
   <v>       0.00241905       0.00034042       0.00008718 </v>
   <v>       0.00004066       0.00004583      -0.00001242 </v>
  </varray>
  <varray name="stress" >
   <v>      -0.03095452       0.00000487      -0.12329587 </v>
   <v>       0.00000483      -0.03094283       0.12331025 </v>
   <v>      -0.12329588       0.12331025      -0.02861679 </v>
  </varray>
  <energy>
   <i name="e_fr_energy">   -367.49985987 </i>
   <i name="e_wo_entrp">   -367.49985987 </i>
   <i name="e_0_energy">   -367.49985987 </i>
  </energy>
  <time name="totalsc">   41.70   41.94</time>
  <eigenvalues>
   <array>
    <dimension dim="1">band</dimension>
    <dimension dim="2">kpoint</dimension>
    <dimension dim="3">spin</dimension>
    <field>eigene</field>
    <field>occ</field>
    <set>
     <set comment="spin 1">
      <set comment="kpoint 1">
       <r>   -6.2055    1.0000 </r>
       <r>   -5.1234    1.0000 </r>
       <r>   -5.1225    1.0000 </r>
       <r>   -5.1213    1.0000 </r>
       <r>   -5.1208    1.0000 </r>
       <r>   -5.1208    1.0000 </r>
       <r>   -5.1188    1.0000 </r>
       <r>   -4.1599    1.0000 </r>
       <r>   -4.1579    1.0000 </r>
       <r>   -4.1562    1.0000 </r>
       <r>   -4.1554    1.0000 </r>
       <r>   -4.1551    1.0000 </r>
       <r>   -4.1551    1.0000 </r>
       <r>   -4.1549    1.0000 </r>
       <r>   -4.1549    1.0000 </r>
       <r>   -4.1546    1.0000 </r>
       <r>   -4.1539    1.0000 </r>
       <r>   -4.1516    1.0000 </r>
       <r>   -4.1511    1.0000 </r>
       <r>   -3.8625    1.0000 </r>
       <r>   -3.8607    1.0000 </r>
       <r>   -3.8606    1.0000 </r>
       <r>   -3.8588    1.0000 </r>
       <r>   -2.0544    1.0000 </r>
       <r>   -2.0541    1.0000 </r>
       <r>   -2.0519    1.0000 </r>
       <r>   -2.0519    1.0000 </r>
       <r>   -2.0499    1.0000 </r>
       <r>   -2.0497    1.0000 </r>
       <r>   -1.8882    1.0000 </r>
       <r>   -1.8859    1.0000 </r>
       <r>   -1.8844    1.0000 </r>
       <r>   -1.8830    1.0000 </r>
       <r>   -1.8828    1.0000 </r>
       <r>   -1.8827    1.0000 </r>
       <r>   -1.8825    1.0000 </r>
       <r>   -1.8824    1.0000 </r>
       <r>   -1.8823    1.0000 </r>
       <r>   -1.8813    1.0000 </r>
       <r>   -1.8797    1.0000 </r>
       <r>   -1.8771    1.0000 </r>
       <r>   -1.2365    1.0000 </r>
       <r>   -1.2347    1.0000 </r>
       <r>   -1.2347    1.0000 </r>
       <r>   -1.2328    1.0000 </r>
       <r>    0.2777    1.0000 </r>
       <r>    0.2790    1.0000 </r>
       <r>    0.2796    1.0000 </r>
       <r>    0.2817    1.0000 </r>
       <r>    0.2818    1.0000 </r>
       <r>    0.2820    1.0000 </r>
       <r>    0.2821    1.0000 </r>
       <r>    0.2822    1.0000 </r>
       <r>    0.2825    1.0000 </r>
       <r>    0.2840    1.0000 </r>
       <r>    0.2851    1.0000 </r>
       <r>    0.2858    1.0000 </r>
       <r>    1.8681    1.0000 </r>
       <r>    1.8700    1.0000 </r>
       <r>    1.8705    1.0000 </r>
       <r>    1.8707    1.0000 </r>
       <r>    1.8708    1.0000 </r>
       <r>    1.8710    1.0000 </r>
       <r>    1.8713    1.0000 </r>
       <r>    1.8715    1.0000 </r>
       <r>    1.8717    1.0000 </r>
       <r>    1.8719    1.0000 </r>
       <r>    1.8731    1.0000 </r>
       <r>    1.8734    1.0000 </r>
       <r>    1.9706    1.0000 </r>
       <r>    1.9711    1.0000 </r>
       <r>    1.9720    1.0000 </r>
       <r>    1.9724    1.0000 </r>
       <r>    1.9729    1.0000 </r>
       <r>    1.9733    1.0000 </r>
       <r>    1.9737    1.0000 </r>
       <r>    1.9744    1.0000 </r>
       <r>    1.9744    1.0000 </r>
       <r>    1.9747    1.0000 </r>
       <r>    1.9749    1.0000 </r>
       <r>    1.9754    1.0000 </r>
       <r>    2.2487    1.0000 </r>
       <r>    2.2493    1.0000 </r>
       <r>    2.2510    1.0000 </r>
       <r>    2.2521    1.0000 </r>
       <r>    2.2534    1.0000 </r>
       <r>    2.2541    1.0000 </r>
       <r>    2.9008    1.0000 </r>
       <r>    2.9008    1.0000 </r>
       <r>    2.9017    1.0000 </r>
       <r>    2.9017    1.0000 </r>
       <r>    2.9026    1.0000 </r>
       <r>    2.9026    1.0000 </r>
       <r>    3.8628    1.0000 </r>
       <r>    3.8642    1.0000 </r>
       <r>    3.8658    1.0000 </r>
       <r>    3.8660    1.0000 </r>
       <r>    3.8667    1.0000 </r>
       <r>    3.8667    1.0000 </r>
       <r>    3.8668    1.0000 </r>
       <r>    3.8668    1.0000 </r>
       <r>    3.8670    1.0000 </r>
       <r>    3.8675    1.0000 </r>
       <r>    3.8689    1.0000 </r>
       <r>    3.8708    1.0000 </r>
       <r>    4.4327    1.0000 </r>
       <r>    4.4339    1.0000 </r>
       <r>    4.4353    1.0000 </r>
       <r>    4.4364    1.0000 </r>
       <r>    4.4368    1.0000 </r>
       <r>    4.4371    1.0000 </r>
       <r>    4.4372    1.0000 </r>
       <r>    4.4373    1.0000 </r>
       <r>    4.4377    1.0000 </r>
       <r>    4.4382    1.0000 </r>
       <r>    4.4400    1.0000 </r>
       <r>    4.4414    1.0000 </r>
       <r>    4.5667    1.0000 </r>
       <r>    4.5679    1.0000 </r>
       <r>    4.5691    1.0000 </r>
       <r>    4.5697    1.0000 </r>
       <r>    4.5700    1.0000 </r>
       <r>    4.5705    1.0000 </r>
       <r>    4.5718    1.0000 </r>
       <r>    4.5732    1.0000 </r>
       <r>    5.7698    1.0000 </r>
       <r>    5.7720    1.0000 </r>
       <r>    5.7741    1.0000 </r>
       <r>    6.3636    0.0000 </r>
       <r>    6.3648    0.0000 </r>
       <r>    6.3658    0.0000 </r>
       <r>    6.3658    0.0000 </r>
       <r>    6.3667    0.0000 </r>
       <r>    6.3679    0.0000 </r>
       <r>    6.8056    0.0000 </r>
       <r>    6.8063    0.0000 </r>
       <r>    6.8077    0.0000 </r>
       <r>    6.8089    0.0000 </r>
       <r>    6.8095    0.0000 </r>
       <r>    6.8103    0.0000 </r>
       <r>    7.2316    0.0000 </r>
       <r>    7.2320    0.0000 </r>
       <r>    7.2320    0.0000 </r>
       <r>    7.2324    0.0000 </r>
       <r>    8.1342    0.0000 </r>
       <r>    8.1353    0.0000 </r>
       <r>    8.1359    0.0000 </r>
       <r>    8.1369    0.0000 </r>
       <r>    8.1377    0.0000 </r>
       <r>    8.1379    0.0000 </r>
       <r>    8.1379    0.0000 </r>
       <r>    8.1382    0.0000 </r>
       <r>    8.1390    0.0000 </r>
       <r>    8.1402    0.0000 </r>
       <r>    8.1403    0.0000 </r>
       <r>    8.1414    0.0000 </r>
       <r>    8.2877    0.0000 </r>
       <r>    8.2889    0.0000 </r>
       <r>    8.2902    0.0000 </r>
       <r>    8.7967    0.0000 </r>
       <r>    8.7967    0.0000 </r>
       <r>    8.7979    0.0000 </r>
       <r>    8.7980    0.0000 </r>
       <r>    8.7992    0.0000 </r>
       <r>    8.7992    0.0000 </r>
       <r>    9.0495    0.0000 </r>
       <r>    9.0503    0.0000 </r>
       <r>    9.0521    0.0000 </r>
      </set>
      <set comment="kpoint 2">
       <r>   -5.9327    1.0000 </r>
       <r>   -5.9313    1.0000 </r>
       <r>   -4.8767    1.0000 </r>
       <r>   -4.8741    1.0000 </r>
       <r>   -4.8728    1.0000 </r>
       <r>   -4.8727    1.0000 </r>
       <r>   -4.8727    1.0000 </r>
       <r>   -4.8716    1.0000 </r>
       <r>   -4.8712    1.0000 </r>
       <r>   -4.8700    1.0000 </r>
       <r>   -4.0264    1.0000 </r>
       <r>   -4.0232    1.0000 </r>
       <r>   -4.0229    1.0000 </r>
       <r>   -4.0229    1.0000 </r>
       <r>   -4.0225    1.0000 </r>
       <r>   -4.0225    1.0000 </r>
       <r>   -4.0222    1.0000 </r>
       <r>   -4.0191    1.0000 </r>
       <r>   -3.8068    1.0000 </r>
       <r>   -3.8045    1.0000 </r>
       <r>   -3.0807    1.0000 </r>
       <r>   -3.0782    1.0000 </r>
       <r>   -3.0769    1.0000 </r>
       <r>   -3.0763    1.0000 </r>
       <r>   -3.0761    1.0000 </r>
       <r>   -3.0753    1.0000 </r>
       <r>   -3.0748    1.0000 </r>
       <r>   -3.0728    1.0000 </r>
       <r>   -1.9752    1.0000 </r>
       <r>   -1.9717    1.0000 </r>
       <r>   -1.9716    1.0000 </r>
       <r>   -1.9715    1.0000 </r>
       <r>   -1.9715    1.0000 </r>
       <r>   -1.9713    1.0000 </r>
       <r>   -1.9712    1.0000 </r>
       <r>   -1.9677    1.0000 </r>
       <r>   -0.8061    1.0000 </r>
       <r>   -0.8056    1.0000 </r>
       <r>   -0.8040    1.0000 </r>
       <r>   -0.8029    1.0000 </r>
       <r>   -0.8026    1.0000 </r>
       <r>   -0.8017    1.0000 </r>
       <r>   -0.8015    1.0000 </r>
       <r>   -0.7996    1.0000 </r>
       <r>   -0.6374    1.0000 </r>
       <r>   -0.6350    1.0000 </r>
       <r>   -0.6348    1.0000 </r>
       <r>   -0.6343    1.0000 </r>
       <r>   -0.6336    1.0000 </r>
       <r>   -0.6332    1.0000 </r>
       <r>   -0.6329    1.0000 </r>
       <r>   -0.6304    1.0000 </r>
       <r>    0.0225    1.0000 </r>
       <r>    0.0240    1.0000 </r>
       <r>    1.4705    1.0000 </r>
       <r>    1.4721    1.0000 </r>
       <r>    1.4735    1.0000 </r>
       <r>    1.4741    1.0000 </r>
       <r>    1.4744    1.0000 </r>
       <r>    1.4752    1.0000 </r>
       <r>    1.4766    1.0000 </r>
       <r>    1.4769    1.0000 </r>
       <r>    1.4911    1.0000 </r>
       <r>    1.4923    1.0000 </r>
       <r>    1.4929    1.0000 </r>
       <r>    1.4934    1.0000 </r>
       <r>    1.4938    1.0000 </r>
       <r>    1.4942    1.0000 </r>
       <r>    1.4946    1.0000 </r>
       <r>    1.4953    1.0000 </r>
       <r>    2.3166    1.0000 </r>
       <r>    2.3172    1.0000 </r>
       <r>    2.3176    1.0000 </r>
       <r>    2.3179    1.0000 </r>
       <r>    2.3182    1.0000 </r>
       <r>    2.3185    1.0000 </r>
       <r>    2.3189    1.0000 </r>
       <r>    2.3195    1.0000 </r>
       <r>    3.0221    1.0000 </r>
       <r>    3.0236    1.0000 </r>
       <r>    3.0245    1.0000 </r>
       <r>    3.0248    1.0000 </r>
       <r>    3.0252    1.0000 </r>
       <r>    3.0255    1.0000 </r>
       <r>    3.0256    1.0000 </r>
       <r>    3.0272    1.0000 </r>
       <r>    3.1464    1.0000 </r>
       <r>    3.1477    1.0000 </r>
       <r>    3.1484    1.0000 </r>
       <r>    3.1493    1.0000 </r>
       <r>    3.1570    1.0000 </r>
       <r>    3.1578    1.0000 </r>
       <r>    3.1586    1.0000 </r>
       <r>    3.1590    1.0000 </r>
       <r>    3.1593    1.0000 </r>
       <r>    3.1602    1.0000 </r>
       <r>    3.1607    1.0000 </r>
       <r>    3.1615    1.0000 </r>
       <r>    3.2833    1.0000 </r>
       <r>    3.2845    1.0000 </r>
       <r>    3.2850    1.0000 </r>
       <r>    3.2856    1.0000 </r>
       <r>    3.2859    1.0000 </r>
       <r>    3.2865    1.0000 </r>
       <r>    3.2871    1.0000 </r>
       <r>    3.2882    1.0000 </r>
       <r>    4.3289    1.0000 </r>
       <r>    4.3307    1.0000 </r>
       <r>    4.3311    1.0000 </r>
       <r>    4.3316    1.0000 </r>
       <r>    4.3319    1.0000 </r>
       <r>    4.3322    1.0000 </r>
       <r>    4.3335    1.0000 </r>
       <r>    4.3345    1.0000 </r>
       <r>    4.4329    1.0000 </r>
       <r>    4.4330    1.0000 </r>
       <r>    4.4964    1.0000 </r>
       <r>    4.5003    1.0000 </r>
       <r>    4.5008    1.0000 </r>
       <r>    4.5009    1.0000 </r>
       <r>    4.5009    1.0000 </r>
       <r>    4.5010    1.0000 </r>
       <r>    4.5014    1.0000 </r>
       <r>    4.5056    1.0000 </r>
       <r>    4.9529    1.0000 </r>
       <r>    4.9547    1.0000 </r>
       <r>    4.9557    1.0000 </r>
       <r>    4.9577    1.0000 </r>
       <r>    6.2790    0.0000 </r>
       <r>    6.2804    0.0000 </r>
       <r>    7.1933    0.0000 </r>
       <r>    7.1946    0.0000 </r>
       <r>    7.6431    0.0000 </r>
       <r>    7.6447    0.0000 </r>
       <r>    7.6454    0.0000 </r>
       <r>    7.6458    0.0000 </r>
       <r>    7.6459    0.0000 </r>
       <r>    7.6463    0.0000 </r>
       <r>    7.6471    0.0000 </r>
       <r>    7.6486    0.0000 </r>
       <r>    7.7139    0.0000 </r>
       <r>    7.7144    0.0000 </r>
       <r>    8.0570    0.0000 </r>
       <r>    8.0590    0.0000 </r>
       <r>    8.0594    0.0000 </r>
       <r>    8.0597    0.0000 </r>
       <r>    8.0598    0.0000 </r>
       <r>    8.0601    0.0000 </r>
       <r>    8.0604    0.0000 </r>
       <r>    8.0622    0.0000 </r>
       <r>    8.1430    0.0000 </r>
       <r>    8.1441    0.0000 </r>
       <r>    8.1453    0.0000 </r>
       <r>    8.1457    0.0000 </r>
       <r>    8.1461    0.0000 </r>
       <r>    8.1466    0.0000 </r>
       <r>    8.1469    0.0000 </r>
       <r>    8.1477    0.0000 </r>
       <r>    8.5506    0.0000 </r>
       <r>    8.5515    0.0000 </r>
       <r>    8.5519    0.0000 </r>
       <r>    8.5523    0.0000 </r>
       <r>    8.5532    0.0000 </r>
       <r>    8.5536    0.0000 </r>
       <r>    8.5545    0.0000 </r>
       <r>    8.5549    0.0000 </r>
       <r>    9.3194    0.0000 </r>
       <r>    9.3240    0.0000 </r>
      </set>
      <set comment="kpoint 3">
       <r>   -5.9327    1.0000 </r>
       <r>   -5.9313    1.0000 </r>
       <r>   -4.8752    1.0000 </r>
       <r>   -4.8746    1.0000 </r>
       <r>   -4.8738    1.0000 </r>
       <r>   -4.8730    1.0000 </r>
       <r>   -4.8725    1.0000 </r>
       <r>   -4.8721    1.0000 </r>
       <r>   -4.8713    1.0000 </r>
       <r>   -4.8694    1.0000 </r>
       <r>   -4.0251    1.0000 </r>
       <r>   -4.0247    1.0000 </r>
       <r>   -4.0237    1.0000 </r>
       <r>   -4.0229    1.0000 </r>
       <r>   -4.0226    1.0000 </r>
       <r>   -4.0225    1.0000 </r>
       <r>   -4.0211    1.0000 </r>
       <r>   -4.0190    1.0000 </r>
       <r>   -3.8068    1.0000 </r>
       <r>   -3.8045    1.0000 </r>
       <r>   -3.0802    1.0000 </r>
       <r>   -3.0778    1.0000 </r>
       <r>   -3.0771    1.0000 </r>
       <r>   -3.0764    1.0000 </r>
       <r>   -3.0760    1.0000 </r>
       <r>   -3.0759    1.0000 </r>
       <r>   -3.0752    1.0000 </r>
       <r>   -3.0725    1.0000 </r>
       <r>   -1.9740    1.0000 </r>
       <r>   -1.9736    1.0000 </r>
       <r>   -1.9717    1.0000 </r>
       <r>   -1.9717    1.0000 </r>
       <r>   -1.9715    1.0000 </r>
       <r>   -1.9713    1.0000 </r>
       <r>   -1.9705    1.0000 </r>
       <r>   -1.9675    1.0000 </r>
       <r>   -0.8067    1.0000 </r>
       <r>   -0.8049    1.0000 </r>
       <r>   -0.8038    1.0000 </r>
       <r>   -0.8029    1.0000 </r>
       <r>   -0.8026    1.0000 </r>
       <r>   -0.8019    1.0000 </r>
       <r>   -0.8015    1.0000 </r>
       <r>   -0.7999    1.0000 </r>
       <r>   -0.6370    1.0000 </r>
       <r>   -0.6357    1.0000 </r>
       <r>   -0.6347    1.0000 </r>
       <r>   -0.6343    1.0000 </r>
       <r>   -0.6340    1.0000 </r>
       <r>   -0.6331    1.0000 </r>
       <r>   -0.6319    1.0000 </r>
       <r>   -0.6308    1.0000 </r>
       <r>    0.0225    1.0000 </r>
       <r>    0.0240    1.0000 </r>
       <r>    1.4707    1.0000 </r>
       <r>    1.4722    1.0000 </r>
       <r>    1.4731    1.0000 </r>
       <r>    1.4741    1.0000 </r>
       <r>    1.4742    1.0000 </r>
       <r>    1.4750    1.0000 </r>
       <r>    1.4761    1.0000 </r>
       <r>    1.4778    1.0000 </r>
       <r>    1.4916    1.0000 </r>
       <r>    1.4925    1.0000 </r>
       <r>    1.4927    1.0000 </r>
       <r>    1.4933    1.0000 </r>
       <r>    1.4935    1.0000 </r>
       <r>    1.4939    1.0000 </r>
       <r>    1.4946    1.0000 </r>
       <r>    1.4955    1.0000 </r>
       <r>    2.3169    1.0000 </r>
       <r>    2.3170    1.0000 </r>
       <r>    2.3176    1.0000 </r>
       <r>    2.3177    1.0000 </r>
       <r>    2.3181    1.0000 </r>
       <r>    2.3185    1.0000 </r>
       <r>    2.3191    1.0000 </r>
       <r>    2.3194    1.0000 </r>
       <r>    3.0225    1.0000 </r>
       <r>    3.0237    1.0000 </r>
       <r>    3.0240    1.0000 </r>
       <r>    3.0243    1.0000 </r>
       <r>    3.0253    1.0000 </r>
       <r>    3.0257    1.0000 </r>
       <r>    3.0259    1.0000 </r>
       <r>    3.0271    1.0000 </r>
       <r>    3.1466    1.0000 </r>
       <r>    3.1477    1.0000 </r>
       <r>    3.1484    1.0000 </r>
       <r>    3.1494    1.0000 </r>
       <r>    3.1570    1.0000 </r>
       <r>    3.1579    1.0000 </r>
       <r>    3.1585    1.0000 </r>
       <r>    3.1590    1.0000 </r>
       <r>    3.1598    1.0000 </r>
       <r>    3.1600    1.0000 </r>
       <r>    3.1605    1.0000 </r>
       <r>    3.1612    1.0000 </r>
       <r>    3.2836    1.0000 </r>
       <r>    3.2844    1.0000 </r>
       <r>    3.2850    1.0000 </r>
       <r>    3.2855    1.0000 </r>
       <r>    3.2859    1.0000 </r>
       <r>    3.2863    1.0000 </r>
       <r>    3.2872    1.0000 </r>
       <r>    3.2883    1.0000 </r>
       <r>    4.3291    1.0000 </r>
       <r>    4.3305    1.0000 </r>
       <r>    4.3309    1.0000 </r>
       <r>    4.3316    1.0000 </r>
       <r>    4.3319    1.0000 </r>
       <r>    4.3325    1.0000 </r>
       <r>    4.3332    1.0000 </r>
       <r>    4.3346    1.0000 </r>
       <r>    4.4329    1.0000 </r>
       <r>    4.4330    1.0000 </r>
       <r>    4.4966    1.0000 </r>
       <r>    4.4998    1.0000 </r>
       <r>    4.5002    1.0000 </r>
       <r>    4.5008    1.0000 </r>
       <r>    4.5009    1.0000 </r>
       <r>    4.5016    1.0000 </r>
       <r>    4.5020    1.0000 </r>
       <r>    4.5055    1.0000 </r>
       <r>    4.9529    1.0000 </r>
       <r>    4.9547    1.0000 </r>
       <r>    4.9557    1.0000 </r>
       <r>    4.9576    1.0000 </r>
       <r>    6.2790    0.0000 </r>
       <r>    6.2804    0.0000 </r>
       <r>    7.1933    0.0000 </r>
       <r>    7.1946    0.0000 </r>
       <r>    7.6431    0.0000 </r>
       <r>    7.6444    0.0000 </r>
       <r>    7.6450    0.0000 </r>
       <r>    7.6461    0.0000 </r>
       <r>    7.6463    0.0000 </r>
       <r>    7.6467    0.0000 </r>
       <r>    7.6468    0.0000 </r>
       <r>    7.6483    0.0000 </r>
       <r>    7.7139    0.0000 </r>
       <r>    7.7144    0.0000 </r>
       <r>    8.0572    0.0000 </r>
       <r>    8.0590    0.0000 </r>
       <r>    8.0593    0.0000 </r>
       <r>    8.0596    0.0000 </r>
       <r>    8.0597    0.0000 </r>
       <r>    8.0602    0.0000 </r>
       <r>    8.0603    0.0000 </r>
       <r>    8.0622    0.0000 </r>
       <r>    8.1429    0.0000 </r>
       <r>    8.1443    0.0000 </r>
       <r>    8.1451    0.0000 </r>
       <r>    8.1455    0.0000 </r>
       <r>    8.1459    0.0000 </r>
       <r>    8.1462    0.0000 </r>
       <r>    8.1471    0.0000 </r>
       <r>    8.1484    0.0000 </r>
       <r>    8.5505    0.0000 </r>
       <r>    8.5514    0.0000 </r>
       <r>    8.5520    0.0000 </r>
       <r>    8.5525    0.0000 </r>
       <r>    8.5534    0.0000 </r>
       <r>    8.5535    0.0000 </r>
       <r>    8.5543    0.0000 </r>
       <r>    8.5547    0.0000 </r>
       <r>    9.3207    0.0000 </r>
       <r>    9.3231    0.0000 </r>
      </set>
      <set comment="kpoint 4">
       <r>   -5.9320    1.0000 </r>
       <r>   -5.9320    1.0000 </r>
       <r>   -4.8761    1.0000 </r>
       <r>   -4.8752    1.0000 </r>
       <r>   -4.8730    1.0000 </r>
       <r>   -4.8729    1.0000 </r>
       <r>   -4.8724    1.0000 </r>
       <r>   -4.8720    1.0000 </r>
       <r>   -4.8710    1.0000 </r>
       <r>   -4.8693    1.0000 </r>
       <r>   -4.0255    1.0000 </r>
       <r>   -4.0246    1.0000 </r>
       <r>   -4.0229    1.0000 </r>
       <r>   -4.0229    1.0000 </r>
       <r>   -4.0225    1.0000 </r>
       <r>   -4.0225    1.0000 </r>
       <r>   -4.0208    1.0000 </r>
       <r>   -4.0199    1.0000 </r>
       <r>   -3.8057    1.0000 </r>
       <r>   -3.8057    1.0000 </r>
       <r>   -3.0787    1.0000 </r>
       <r>   -3.0784    1.0000 </r>
       <r>   -3.0774    1.0000 </r>
       <r>   -3.0764    1.0000 </r>
       <r>   -3.0761    1.0000 </r>
       <r>   -3.0761    1.0000 </r>
       <r>   -3.0751    1.0000 </r>
       <r>   -3.0730    1.0000 </r>
       <r>   -1.9751    1.0000 </r>
       <r>   -1.9738    1.0000 </r>
       <r>   -1.9716    1.0000 </r>
       <r>   -1.9715    1.0000 </r>
       <r>   -1.9714    1.0000 </r>
       <r>   -1.9714    1.0000 </r>
       <r>   -1.9692    1.0000 </r>
       <r>   -1.9678    1.0000 </r>
       <r>   -0.8074    1.0000 </r>
       <r>   -0.8049    1.0000 </r>
       <r>   -0.8039    1.0000 </r>
       <r>   -0.8031    1.0000 </r>
       <r>   -0.8028    1.0000 </r>
       <r>   -0.8021    1.0000 </r>
       <r>   -0.8002    1.0000 </r>
       <r>   -0.7996    1.0000 </r>
       <r>   -0.6367    1.0000 </r>
       <r>   -0.6359    1.0000 </r>
       <r>   -0.6348    1.0000 </r>
       <r>   -0.6340    1.0000 </r>
       <r>   -0.6339    1.0000 </r>
       <r>   -0.6331    1.0000 </r>
       <r>   -0.6320    1.0000 </r>
       <r>   -0.6311    1.0000 </r>
       <r>    0.0232    1.0000 </r>
       <r>    0.0232    1.0000 </r>
       <r>    1.4713    1.0000 </r>
       <r>    1.4720    1.0000 </r>
       <r>    1.4736    1.0000 </r>
       <r>    1.4740    1.0000 </r>
       <r>    1.4745    1.0000 </r>
       <r>    1.4749    1.0000 </r>
       <r>    1.4757    1.0000 </r>
       <r>    1.4774    1.0000 </r>
       <r>    1.4910    1.0000 </r>
       <r>    1.4924    1.0000 </r>
       <r>    1.4929    1.0000 </r>
       <r>    1.4935    1.0000 </r>
       <r>    1.4937    1.0000 </r>
       <r>    1.4937    1.0000 </r>
       <r>    1.4950    1.0000 </r>
       <r>    1.4951    1.0000 </r>
       <r>    2.3162    1.0000 </r>
       <r>    2.3172    1.0000 </r>
       <r>    2.3176    1.0000 </r>
       <r>    2.3179    1.0000 </r>
       <r>    2.3182    1.0000 </r>
       <r>    2.3185    1.0000 </r>
       <r>    2.3189    1.0000 </r>
       <r>    2.3198    1.0000 </r>
       <r>    3.0230    1.0000 </r>
       <r>    3.0239    1.0000 </r>
       <r>    3.0246    1.0000 </r>
       <r>    3.0248    1.0000 </r>
       <r>    3.0249    1.0000 </r>
       <r>    3.0254    1.0000 </r>
       <r>    3.0258    1.0000 </r>
       <r>    3.0261    1.0000 </r>
       <r>    3.1479    1.0000 </r>
       <r>    3.1480    1.0000 </r>
       <r>    3.1481    1.0000 </r>
       <r>    3.1481    1.0000 </r>
       <r>    3.1578    1.0000 </r>
       <r>    3.1580    1.0000 </r>
       <r>    3.1582    1.0000 </r>
       <r>    3.1586    1.0000 </r>
       <r>    3.1592    1.0000 </r>
       <r>    3.1596    1.0000 </r>
       <r>    3.1608    1.0000 </r>
       <r>    3.1615    1.0000 </r>
       <r>    3.2828    1.0000 </r>
       <r>    3.2845    1.0000 </r>
       <r>    3.2849    1.0000 </r>
       <r>    3.2857    1.0000 </r>
       <r>    3.2858    1.0000 </r>
       <r>    3.2866    1.0000 </r>
       <r>    3.2870    1.0000 </r>
       <r>    3.2888    1.0000 </r>
       <r>    4.3279    1.0000 </r>
       <r>    4.3293    1.0000 </r>
       <r>    4.3316    1.0000 </r>
       <r>    4.3319    1.0000 </r>
       <r>    4.3321    1.0000 </r>
       <r>    4.3329    1.0000 </r>
       <r>    4.3338    1.0000 </r>
       <r>    4.3348    1.0000 </r>
       <r>    4.4329    1.0000 </r>
       <r>    4.4330    1.0000 </r>
       <r>    4.4985    1.0000 </r>
       <r>    4.5000    1.0000 </r>
       <r>    4.5006    1.0000 </r>
       <r>    4.5008    1.0000 </r>
       <r>    4.5009    1.0000 </r>
       <r>    4.5015    1.0000 </r>
       <r>    4.5019    1.0000 </r>
       <r>    4.5034    1.0000 </r>
       <r>    4.9552    1.0000 </r>
       <r>    4.9552    1.0000 </r>
       <r>    4.9552    1.0000 </r>
       <r>    4.9553    1.0000 </r>
       <r>    6.2797    0.0000 </r>
       <r>    6.2797    0.0000 </r>
       <r>    7.1939    0.0000 </r>
       <r>    7.1939    0.0000 </r>
       <r>    7.6435    0.0000 </r>
       <r>    7.6446    0.0000 </r>
       <r>    7.6451    0.0000 </r>
       <r>    7.6457    0.0000 </r>
       <r>    7.6460    0.0000 </r>
       <r>    7.6465    0.0000 </r>
       <r>    7.6472    0.0000 </r>
       <r>    7.6481    0.0000 </r>
       <r>    7.7141    0.0000 </r>
       <r>    7.7142    0.0000 </r>
       <r>    8.0590    0.0000 </r>
       <r>    8.0592    0.0000 </r>
       <r>    8.0595    0.0000 </r>
       <r>    8.0596    0.0000 </r>
       <r>    8.0597    0.0000 </r>
       <r>    8.0598    0.0000 </r>
       <r>    8.0602    0.0000 </r>
       <r>    8.0604    0.0000 </r>
       <r>    8.1434    0.0000 </r>
       <r>    8.1442    0.0000 </r>
       <r>    8.1451    0.0000 </r>
       <r>    8.1453    0.0000 </r>
       <r>    8.1461    0.0000 </r>
       <r>    8.1462    0.0000 </r>
       <r>    8.1470    0.0000 </r>
       <r>    8.1479    0.0000 </r>
       <r>    8.5515    0.0000 </r>
       <r>    8.5516    0.0000 </r>
       <r>    8.5519    0.0000 </r>
       <r>    8.5522    0.0000 </r>
       <r>    8.5531    0.0000 </r>
       <r>    8.5534    0.0000 </r>
       <r>    8.5539    0.0000 </r>
       <r>    8.5547    0.0000 </r>
       <r>    9.3207    0.0000 </r>
       <r>    9.3242    0.0000 </r>
      </set>
      <set comment="kpoint 5">
       <r>   -5.6651    1.0000 </r>
       <r>   -5.6645    1.0000 </r>
       <r>   -5.6640    1.0000 </r>
       <r>   -5.6620    1.0000 </r>
       <r>   -4.6461    1.0000 </r>
       <r>   -4.6454    1.0000 </r>
       <r>   -4.6448    1.0000 </r>
       <r>   -4.6443    1.0000 </r>
       <r>   -4.6442    1.0000 </r>
       <r>   -4.6441    1.0000 </r>
       <r>   -4.6424    1.0000 </r>
       <r>   -4.6418    1.0000 </r>
       <r>   -3.6094    1.0000 </r>
       <r>   -3.6072    1.0000 </r>
       <r>   -3.6061    1.0000 </r>
       <r>   -3.6055    1.0000 </r>
       <r>   -3.6053    1.0000 </r>
       <r>   -3.6052    1.0000 </r>
       <r>   -3.6031    1.0000 </r>
       <r>   -3.6010    1.0000 </r>
       <r>   -3.3244    1.0000 </r>
       <r>   -3.3237    1.0000 </r>
       <r>   -3.3223    1.0000 </r>
       <r>   -3.3218    1.0000 </r>
       <r>   -3.3216    1.0000 </r>
       <r>   -3.3214    1.0000 </r>
       <r>   -3.3204    1.0000 </r>
       <r>   -3.3173    1.0000 </r>
       <r>   -2.4614    1.0000 </r>
       <r>   -2.4596    1.0000 </r>
       <r>   -2.4596    1.0000 </r>
       <r>   -2.4584    1.0000 </r>
       <r>   -1.4638    1.0000 </r>
       <r>   -1.4637    1.0000 </r>
       <r>   -1.4617    1.0000 </r>
       <r>   -1.4615    1.0000 </r>
       <r>   -1.0420    1.0000 </r>
       <r>   -1.0395    1.0000 </r>
       <r>   -1.0391    1.0000 </r>
       <r>   -1.0387    1.0000 </r>
       <r>   -1.0383    1.0000 </r>
       <r>   -1.0374    1.0000 </r>
       <r>   -1.0366    1.0000 </r>
       <r>   -1.0352    1.0000 </r>
       <r>   -0.1984    1.0000 </r>
       <r>   -0.1969    1.0000 </r>
       <r>   -0.1962    1.0000 </r>
       <r>   -0.1954    1.0000 </r>
       <r>   -0.1952    1.0000 </r>
       <r>   -0.1947    1.0000 </r>
       <r>   -0.1934    1.0000 </r>
       <r>   -0.1919    1.0000 </r>
       <r>    0.4621    1.0000 </r>
       <r>    0.4629    1.0000 </r>
       <r>    0.4642    1.0000 </r>
       <r>    0.4648    1.0000 </r>
       <r>    0.4650    1.0000 </r>
       <r>    0.4659    1.0000 </r>
       <r>    0.4671    1.0000 </r>
       <r>    0.4678    1.0000 </r>
       <r>    1.4165    1.0000 </r>
       <r>    1.4166    1.0000 </r>
       <r>    1.4171    1.0000 </r>
       <r>    1.4178    1.0000 </r>
       <r>    2.2854    1.0000 </r>
       <r>    2.2864    1.0000 </r>
       <r>    2.2870    1.0000 </r>
       <r>    2.2871    1.0000 </r>
       <r>    2.2875    1.0000 </r>
       <r>    2.2879    1.0000 </r>
       <r>    2.2884    1.0000 </r>
       <r>    2.2888    1.0000 </r>
       <r>    2.3708    1.0000 </r>
       <r>    2.3712    1.0000 </r>
       <r>    2.3713    1.0000 </r>
       <r>    2.3719    1.0000 </r>
       <r>    2.3723    1.0000 </r>
       <r>    2.3726    1.0000 </r>
       <r>    2.3733    1.0000 </r>
       <r>    2.3740    1.0000 </r>
       <r>    2.9816    1.0000 </r>
       <r>    2.9822    1.0000 </r>
       <r>    2.9830    1.0000 </r>
       <r>    2.9832    1.0000 </r>
       <r>    2.9833    1.0000 </r>
       <r>    2.9837    1.0000 </r>
       <r>    2.9840    1.0000 </r>
       <r>    2.9846    1.0000 </r>
       <r>    3.0761    1.0000 </r>
       <r>    3.0762    1.0000 </r>
       <r>    3.0773    1.0000 </r>
       <r>    3.0773    1.0000 </r>
       <r>    3.3302    1.0000 </r>
       <r>    3.3314    1.0000 </r>
       <r>    3.3319    1.0000 </r>
       <r>    3.3322    1.0000 </r>
       <r>    3.5886    1.0000 </r>
       <r>    3.5897    1.0000 </r>
       <r>    3.5907    1.0000 </r>
       <r>    3.5910    1.0000 </r>
       <r>    3.5911    1.0000 </r>
       <r>    3.5913    1.0000 </r>
       <r>    3.5928    1.0000 </r>
       <r>    3.5936    1.0000 </r>
       <r>    3.9153    1.0000 </r>
       <r>    3.9167    1.0000 </r>
       <r>    3.9173    1.0000 </r>
       <r>    3.9179    1.0000 </r>
       <r>    3.9183    1.0000 </r>
       <r>    3.9186    1.0000 </r>
       <r>    3.9201    1.0000 </r>
       <r>    3.9216    1.0000 </r>
       <r>    4.1180    1.0000 </r>
       <r>    4.1184    1.0000 </r>
       <r>    4.1184    1.0000 </r>
       <r>    4.1188    1.0000 </r>
       <r>    4.1728    1.0000 </r>
       <r>    4.1733    1.0000 </r>
       <r>    4.1739    1.0000 </r>
       <r>    4.1740    1.0000 </r>
       <r>    4.1744    1.0000 </r>
       <r>    4.1747    1.0000 </r>
       <r>    4.1749    1.0000 </r>
       <r>    4.1754    1.0000 </r>
       <r>    5.4797    1.0000 </r>
       <r>    5.4801    1.0000 </r>
       <r>    5.4801    1.0000 </r>
       <r>    5.4811    1.0000 </r>
       <r>    6.8652    0.0000 </r>
       <r>    6.8654    0.0000 </r>
       <r>    6.8659    0.0000 </r>
       <r>    6.8666    0.0000 </r>
       <r>    7.6295    0.0000 </r>
       <r>    7.6301    0.0000 </r>
       <r>    7.6311    0.0000 </r>
       <r>    7.6314    0.0000 </r>
       <r>    7.6317    0.0000 </r>
       <r>    7.6320    0.0000 </r>
       <r>    7.6331    0.0000 </r>
       <r>    7.6337    0.0000 </r>
       <r>    7.9391    0.0000 </r>
       <r>    7.9392    0.0000 </r>
       <r>    7.9398    0.0000 </r>
       <r>    7.9399    0.0000 </r>
       <r>    7.9401    0.0000 </r>
       <r>    7.9403    0.0000 </r>
       <r>    7.9406    0.0000 </r>
       <r>    7.9409    0.0000 </r>
       <r>    8.3140    0.0000 </r>
       <r>    8.3142    0.0000 </r>
       <r>    8.3146    0.0000 </r>
       <r>    8.3151    0.0000 </r>
       <r>    8.3153    0.0000 </r>
       <r>    8.3155    0.0000 </r>
       <r>    8.3162    0.0000 </r>
       <r>    8.3165    0.0000 </r>
       <r>    8.7647    0.0000 </r>
       <r>    8.7664    0.0000 </r>
       <r>    8.7676    0.0000 </r>
       <r>    8.7697    0.0000 </r>
       <r>    8.7707    0.0000 </r>
       <r>    8.7725    0.0000 </r>
       <r>    8.7742    0.0000 </r>
       <r>    8.7794    0.0000 </r>
       <r>    8.7850    0.0000 </r>
       <r>    8.7925    0.0000 </r>
       <r>    8.8013    0.0000 </r>
       <r>    8.8135    0.0000 </r>
      </set>
      <set comment="kpoint 6">
       <r>   -5.6651    1.0000 </r>
       <r>   -5.6642    1.0000 </r>
       <r>   -5.6636    1.0000 </r>
       <r>   -5.6627    1.0000 </r>
       <r>   -4.6469    1.0000 </r>
       <r>   -4.6460    1.0000 </r>
       <r>   -4.6447    1.0000 </r>
       <r>   -4.6444    1.0000 </r>
       <r>   -4.6441    1.0000 </r>
       <r>   -4.6440    1.0000 </r>
       <r>   -4.6428    1.0000 </r>
       <r>   -4.6401    1.0000 </r>
       <r>   -3.6086    1.0000 </r>
       <r>   -3.6064    1.0000 </r>
       <r>   -3.6060    1.0000 </r>
       <r>   -3.6053    1.0000 </r>
       <r>   -3.6052    1.0000 </r>
       <r>   -3.6051    1.0000 </r>
       <r>   -3.6042    1.0000 </r>
       <r>   -3.6021    1.0000 </r>
       <r>   -3.3245    1.0000 </r>
       <r>   -3.3229    1.0000 </r>
       <r>   -3.3223    1.0000 </r>
       <r>   -3.3216    1.0000 </r>
       <r>   -3.3215    1.0000 </r>
       <r>   -3.3214    1.0000 </r>
       <r>   -3.3203    1.0000 </r>
       <r>   -3.3184    1.0000 </r>
       <r>   -2.4619    1.0000 </r>
       <r>   -2.4606    1.0000 </r>
       <r>   -2.4589    1.0000 </r>
       <r>   -2.4577    1.0000 </r>
       <r>   -1.4646    1.0000 </r>
       <r>   -1.4627    1.0000 </r>
       <r>   -1.4626    1.0000 </r>
       <r>   -1.4608    1.0000 </r>
       <r>   -1.0425    1.0000 </r>
       <r>   -1.0401    1.0000 </r>
       <r>   -1.0388    1.0000 </r>
       <r>   -1.0384    1.0000 </r>
       <r>   -1.0381    1.0000 </r>
       <r>   -1.0369    1.0000 </r>
       <r>   -1.0361    1.0000 </r>
       <r>   -1.0356    1.0000 </r>
       <r>   -0.1993    1.0000 </r>
       <r>   -0.1972    1.0000 </r>
       <r>   -0.1959    1.0000 </r>
       <r>   -0.1952    1.0000 </r>
       <r>   -0.1951    1.0000 </r>
       <r>   -0.1939    1.0000 </r>
       <r>   -0.1930    1.0000 </r>
       <r>   -0.1924    1.0000 </r>
       <r>    0.4621    1.0000 </r>
       <r>    0.4629    1.0000 </r>
       <r>    0.4647    1.0000 </r>
       <r>    0.4649    1.0000 </r>
       <r>    0.4650    1.0000 </r>
       <r>    0.4657    1.0000 </r>
       <r>    0.4668    1.0000 </r>
       <r>    0.4676    1.0000 </r>
       <r>    1.4160    1.0000 </r>
       <r>    1.4168    1.0000 </r>
       <r>    1.4172    1.0000 </r>
       <r>    1.4180    1.0000 </r>
       <r>    2.2849    1.0000 </r>
       <r>    2.2855    1.0000 </r>
       <r>    2.2867    1.0000 </r>
       <r>    2.2870    1.0000 </r>
       <r>    2.2877    1.0000 </r>
       <r>    2.2879    1.0000 </r>
       <r>    2.2889    1.0000 </r>
       <r>    2.2898    1.0000 </r>
       <r>    2.3707    1.0000 </r>
       <r>    2.3712    1.0000 </r>
       <r>    2.3716    1.0000 </r>
       <r>    2.3723    1.0000 </r>
       <r>    2.3723    1.0000 </r>
       <r>    2.3728    1.0000 </r>
       <r>    2.3732    1.0000 </r>
       <r>    2.3735    1.0000 </r>
       <r>    2.9813    1.0000 </r>
       <r>    2.9814    1.0000 </r>
       <r>    2.9828    1.0000 </r>
       <r>    2.9832    1.0000 </r>
       <r>    2.9834    1.0000 </r>
       <r>    2.9838    1.0000 </r>
       <r>    2.9847    1.0000 </r>
       <r>    2.9849    1.0000 </r>
       <r>    3.0750    1.0000 </r>
       <r>    3.0763    1.0000 </r>
       <r>    3.0772    1.0000 </r>
       <r>    3.0785    1.0000 </r>
       <r>    3.3298    1.0000 </r>
       <r>    3.3310    1.0000 </r>
       <r>    3.3318    1.0000 </r>
       <r>    3.3329    1.0000 </r>
       <r>    3.5887    1.0000 </r>
       <r>    3.5900    1.0000 </r>
       <r>    3.5908    1.0000 </r>
       <r>    3.5909    1.0000 </r>
       <r>    3.5914    1.0000 </r>
       <r>    3.5919    1.0000 </r>
       <r>    3.5925    1.0000 </r>
       <r>    3.5927    1.0000 </r>
       <r>    3.9160    1.0000 </r>
       <r>    3.9168    1.0000 </r>
       <r>    3.9176    1.0000 </r>
       <r>    3.9178    1.0000 </r>
       <r>    3.9183    1.0000 </r>
       <r>    3.9186    1.0000 </r>
       <r>    3.9197    1.0000 </r>
       <r>    3.9212    1.0000 </r>
       <r>    4.1180    1.0000 </r>
[...]
      </set>
     </set>
    </set>
   </array>
  </eigenvalues>
  <separator name="orbital magnetization" >
   <v name="MAGDIPOLOUT">      0.00000000      0.00000000      0.00000000</v>
  </separator>
  <dos>
   <i name="efermi">      5.89405752 </i>
   <total>
    <array>
     <dimension dim="1">gridpoints</dimension>
     <dimension dim="2">spin</dimension>
     <field>energy</field>
     <field>total</field>
     <field>integrated</field>
     <set>
      <set comment="spin 1">
       <r>    -6.9820     0.0000     0.0000 </r>
       <r>    -6.9251     0.0000     0.0000 </r>
       <r>    -6.8681     0.0000     0.0000 </r>
       <r>    -6.8112     0.0000     0.0000 </r>
       <r>    -6.7542     0.0000     0.0000 </r>
       <r>    -6.6973     0.0000     0.0000 </r>
       <r>    -6.6403     0.0000     0.0000 </r>
       <r>    -6.5834     0.0000     0.0000 </r>
       <r>    -6.5265     0.0000     0.0000 </r>
       <r>    -6.4695     0.0000     0.0000 </r>
       <r>    -6.4126     0.0000     0.0000 </r>
       <r>    -6.3556     0.0000     0.0000 </r>
       <r>    -6.2987     0.0000     0.0000 </r>
       <r>    -6.2418     0.0228     0.0013 </r>
       <r>    -6.1848     4.0533     0.2321 </r>
       <r>    -6.1279     0.3142     0.2500 </r>
       <r>    -6.0709     0.0000     0.2500 </r>
       <r>    -6.0140     0.0000     0.2500 </r>
       <r>    -5.9570     1.0160     0.3079 </r>
       <r>    -5.9001    25.0092     1.7319 </r>
       <r>    -5.8432     0.3172     1.7500 </r>
       <r>    -5.7862     0.0000     1.7500 </r>
       <r>    -5.7293     0.0001     1.7500 </r>
       <r>    -5.6723    14.5645     2.5793 </r>
       <r>    -5.6154    38.1041     4.7491 </r>
       <r>    -5.5584     0.0163     4.7500 </r>
       <r>    -5.5015     0.0000     4.7500 </r>
       <r>    -5.4446     0.0723     4.7541 </r>
       <r>    -5.3876    30.5320     6.4927 </r>
       <r>    -5.3307     4.5191     6.7500 </r>
       <r>    -5.2737     0.0000     6.7500 </r>
       <r>    -5.2168     0.0000     6.7500 </r>
       <r>    -5.1599     0.0874     6.7550 </r>
       <r>    -5.1029    23.6678     8.1027 </r>
       <r>    -5.0460     2.5872     8.2500 </r>
       <r>    -4.9890     0.0000     8.2500 </r>
       <r>    -4.9321     0.0017     8.2501 </r>
       <r>    -4.8751    45.6349    10.8487 </r>
       <r>    -4.8182    59.7264    14.2496 </r>
       <r>    -4.7613     0.0069    14.2500 </r>
       <r>    -4.7043     0.0013    14.2501 </r>
       <r>    -4.6474    43.2325    16.7118 </r>
       <r>    -4.5904    62.1276    20.2495 </r>
       <r>    -4.5335     0.0086    20.2500 </r>
       <r>    -4.4765     0.0000    20.2500 </r>
       <r>    -4.4196     0.0000    20.2500 </r>
       <r>    -4.3627     0.0000    20.2500 </r>
       <r>    -4.3057     0.0000    20.2500 </r>
       <r>    -4.2488     0.0000    20.2500 </r>
       <r>    -4.1918     0.2698    20.2654 </r>
       <r>    -4.1349    48.2183    23.0110 </r>
       <r>    -4.0779     4.2025    23.2503 </r>
       <r>    -4.0210    57.6939    26.5355 </r>
       <r>    -3.9641    47.6684    29.2499 </r>
       <r>    -3.9071     0.0114    29.2505 </r>
       <r>    -3.8502    13.5242    30.0206 </r>
       <r>    -3.7932    25.3546    31.4644 </r>
       <r>    -3.7363     5.0160    31.7500 </r>
       <r>    -3.6794     0.0000    31.7500 </r>
       <r>    -3.6224    12.2517    32.4476 </r>
       <r>    -3.5655    92.8456    37.7345 </r>
       <r>    -3.5085     2.0919    37.8536 </r>
       <r>    -3.4516    99.7861    43.5356 </r>
       <r>    -3.3946     3.7647    43.7500 </r>
       <r>    -3.3377    13.6618    44.5279 </r>
       <r>    -3.2808    91.4894    49.7375 </r>
       <r>    -3.2238     0.2188    49.7500 </r>
       <r>    -3.1669     0.0000    49.7500 </r>
       <r>    -3.1099     0.9948    49.8066 </r>
       <r>    -3.0530    99.0403    55.4462 </r>
       <r>    -2.9960     5.3348    55.7500 </r>
       <r>    -2.9391     0.0000    55.7500 </r>
       <r>    -2.8822     0.0000    55.7500 </r>
       <r>    -2.8252     0.0000    55.7500 </r>
       <r>    -2.7683     0.0000    55.7500 </r>
       <r>    -2.7113     0.0000    55.7500 </r>
       <r>    -2.6544     0.0000    55.7500 </r>
       <r>    -2.5975     0.0000    55.7500 </r>
       <r>    -2.5405     0.0000    55.7500 </r>
       <r>    -2.4836     2.4796    55.8912 </r>
       <r>    -2.4266    49.6844    58.7203 </r>
       <r>    -2.3697     0.5210    58.7500 </r>
       <r>    -2.3127     0.0000    58.7500 </r>
       <r>    -2.2558     0.0000    58.7500 </r>
       <r>    -2.1989     0.0000    58.7500 </r>
       <r>    -2.1419     0.0000    58.7500 </r>
       <r>    -2.0850     0.2717    58.7655 </r>
       <r>    -2.0280    24.8479    60.1804 </r>
       <r>    -1.9711    55.0420    63.3146 </r>
       <r>    -1.9141    52.3091    66.2932 </r>
       <r>    -1.8572    49.9125    69.1353 </r>
       <r>    -1.8003     2.0142    69.2500 </r>
       <r>    -1.7433     0.0000    69.2500 </r>
       <r>    -1.6864     0.0000    69.2500 </r>
       <r>    -1.6294     0.0000    69.2500 </r>
       <r>    -1.5725     0.0000    69.2500 </r>
       <r>    -1.5155     0.0052    69.2503 </r>
       <r>    -1.4586    32.2762    71.0882 </r>
       <r>    -1.4017    20.4031    72.2500 </r>
       <r>    -1.3447     0.0005    72.2500 </r>
       <r>    -1.2878     0.0016    72.2501 </r>
       <r>    -1.2308    10.6570    72.8569 </r>
       <r>    -1.1739     6.9028    73.2500 </r>
       <r>    -1.1170     0.0002    73.2500 </r>
       <r>    -1.0600     6.8112    73.6378 </r>
       <r>    -1.0031    97.8469    79.2095 </r>
       <r>    -0.9461     0.7119    79.2500 </r>
       <r>    -0.8892     0.0000    79.2500 </r>
       <r>    -0.8322     2.1618    79.3731 </r>
       <r>    -0.7753   100.4394    85.0923 </r>
       <r>    -0.7184     2.7687    85.2500 </r>
       <r>    -0.6614     3.4739    85.4478 </r>
       <r>    -0.6045   196.4074    96.6317 </r>
       <r>    -0.5475    10.8586    97.2500 </r>
       <r>    -0.4906     0.0000    97.2500 </r>
       <r>    -0.4336     0.0000    97.2500 </r>
       <r>    -0.3767     0.0000    97.2500 </r>
       <r>    -0.3198     0.0000    97.2500 </r>
       <r>    -0.2628     0.0001    97.2500 </r>
       <r>    -0.2059    24.0824    98.6213 </r>
       <r>    -0.1489    81.2248   103.2464 </r>
       <r>    -0.0920     0.0626   103.2500 </r>
       <r>    -0.0351     0.0005   103.2500 </r>
       <r>     0.0219    12.1708   103.9431 </r>
       <r>     0.0788    14.1701   104.7499 </r>
       <r>     0.1358     0.0011   104.7500 </r>
       <r>     0.1927     0.0000   104.7500 </r>
       <r>     0.2497     0.6375   104.7863 </r>
       <r>     0.3066    49.8046   107.6223 </r>
       <r>     0.3635     2.2429   107.7500 </r>
       <r>     0.4205     0.0945   107.7554 </r>
       <r>     0.4774    85.1273   112.6027 </r>
       <r>     0.5344    20.1481   113.7500 </r>
       <r>     0.5913     0.0001   113.7500 </r>
       <r>     0.6483     0.0000   113.7500 </r>
       <r>     0.7052     0.0000   113.7500 </r>
       <r>     0.7621     0.0000   113.7500 </r>
       <r>     0.8191     0.0000   113.7500 </r>
       <r>     0.8760     0.0000   113.7500 </r>
       <r>     0.9330     0.0000   113.7500 </r>
       <r>     0.9899     0.0000   113.7500 </r>
       <r>     1.0469     0.0000   113.7500 </r>
       <r>     1.1038     0.0000   113.7500 </r>
       <r>     1.1607     0.0000   113.7500 </r>
       <r>     1.2177     0.0000   113.7500 </r>
       <r>     1.2746     0.0000   113.7500 </r>
       <r>     1.3316     0.0000   113.7500 </r>
       <r>     1.3885     1.1615   113.8161 </r>
       <r>     1.4454    52.7230   116.8183 </r>
       <r>     1.5024   179.1908   127.0218 </r>
       <r>     1.5593    30.3495   128.7500 </r>
       <r>     1.6163     0.0002   128.7500 </r>
       <r>     1.6732     0.0000   128.7500 </r>
       <r>     1.7302     0.0000   128.7500 </r>
       <r>     1.7871     0.2204   128.7626 </r>
       <r>     1.8440    34.0364   130.7007 </r>
       <r>     1.9010    52.6084   133.6963 </r>
       <r>     1.9579     8.2980   134.1688 </r>
       <r>     2.0149    45.2387   136.7448 </r>
       <r>     2.0718     0.0914   136.7500 </r>
       <r>     2.1288     0.0001   136.7500 </r>
       <r>     2.1857    19.8567   137.8807 </r>
       <r>     2.2426    92.5823   143.1525 </r>
       <r>     2.2996   114.3821   149.6657 </r>
       <r>     2.3565   129.4504   157.0369 </r>
       <r>     2.4135    91.3617   162.2392 </r>
       <r>     2.4704     0.1892   162.2500 </r>
       <r>     2.5273     0.0000   162.2500 </r>
       <r>     2.5843     0.0000   162.2500 </r>
       <r>     2.6412     0.0000   162.2500 </r>
       <r>     2.6982     0.0000   162.2500 </r>
       <r>     2.7551     0.0000   162.2500 </r>
       <r>     2.8121     0.0000   162.2500 </r>
       <r>     2.8690     0.2750   162.2657 </r>
       <r>     2.9259    24.9231   163.6848 </r>
       <r>     2.9829    53.0860   166.7077 </r>
       <r>     3.0398   143.7719   174.8944 </r>
       <r>     3.0968    63.5577   178.5135 </r>
       <r>     3.1537    75.4909   182.8121 </r>
       <r>     3.2107    86.7021   187.7491 </r>
       <r>     3.2676    10.6252   188.3541 </r>
       <r>     3.3245   110.9735   194.6732 </r>
       <r>     3.3815    36.4613   196.7494 </r>
       <r>     3.4384     0.0108   196.7500 </r>
       <r>     3.4954     0.0037   196.7502 </r>
       <r>     3.5523    52.5429   199.7421 </r>
       <r>     3.6093   147.5758   208.1454 </r>
       <r>     3.6662    10.6175   208.7500 </r>
       <r>     3.7231     0.0000   208.7500 </r>
       <r>     3.7801     0.0000   208.7500 </r>
       <r>     3.8370     0.9959   208.8067 </r>
       <r>     3.8940    54.8735   211.9313 </r>
       <r>     3.9509   101.0375   217.6846 </r>
       <r>     4.0078     1.1480   217.7500 </r>
       <r>     4.0648     0.0039   217.7502 </r>
       <r>     4.1217    31.2075   219.5272 </r>
       <r>     4.1787    87.2856   224.4975 </r>
       <r>     4.2356    39.5571   226.7500 </r>
       <r>     4.2926     0.3121   226.7677 </r>
       <r>     4.3495    93.7612   232.1067 </r>
       <r>     4.4064    12.9678   232.8451 </r>
       <r>     4.4634    75.6731   237.1541 </r>
       <r>     4.5203    97.8707   242.7271 </r>
       <r>     4.5773    33.7019   244.6461 </r>
       <r>     4.6342    10.6048   245.2500 </r>
       <r>     4.6912     0.0001   245.2500 </r>
       <r>     4.7481     0.0000   245.2500 </r>
       <r>     4.8050     0.0000   245.2500 </r>
       <r>     4.8620     0.0000   245.2500 </r>
       <r>     4.9189     0.2804   245.2660 </r>
       <r>     4.9759    49.5495   248.0874 </r>
       <r>     5.0328    70.2089   252.0853 </r>
       <r>     5.0897     2.8928   252.2500 </r>
       <r>     5.1467     0.0000   252.2500 </r>
       <r>     5.2036     0.0000   252.2500 </r>
       <r>     5.2606     0.0000   252.2500 </r>
       <r>     5.3175     0.0000   252.2500 </r>
       <r>     5.3745     0.0000   252.2500 </r>
       <r>     5.4314     0.0161   252.2509 </r>
       <r>     5.4883    37.6632   254.3955 </r>
       <r>     5.5453    15.0056   255.2500 </r>
       <r>     5.6022     0.0001   255.2500 </r>
       <r>     5.6592     0.0000   255.2500 </r>
       <r>     5.7161     0.0006   255.2500 </r>
       <r>     5.7731     6.9874   255.6479 </r>
       <r>     5.8300     6.1829   256.0000 </r>
       <r>     5.8869     0.0003   256.0000 </r>
       <r>     5.9439     0.0000   256.0000 </r>
       <r>     6.0008     0.0000   256.0000 </r>
       <r>     6.0578     0.0000   256.0000 </r>
       <r>     6.1147     0.0000   256.0000 </r>
       <r>     6.1717     0.0000   256.0000 </r>
       <r>     6.2286     0.0040   256.0002 </r>
       <r>     6.2855    17.3663   256.9891 </r>
       <r>     6.3425    10.3054   257.5759 </r>
       <r>     6.3994    24.7742   258.9866 </r>
       <r>     6.4564     0.2351   259.0000 </r>
       <r>     6.5133     0.0000   259.0000 </r>
       <r>     6.5702     0.0000   259.0000 </r>
       <r>     6.6272     0.0000   259.0000 </r>
       <r>     6.6841     0.0000   259.0000 </r>
       <r>     6.7411     0.0000   259.0000 </r>
       <r>     6.7980     6.3279   259.3603 </r>
       <r>     6.8550    31.7067   261.1658 </r>
       <r>     6.9119    40.9627   263.4983 </r>
       <r>     6.9688     0.0301   263.5000 </r>
       <r>     7.0258     0.0000   263.5000 </r>
       <r>     7.0827     0.0000   263.5000 </r>
       <r>     7.1397     0.0389   263.5022 </r>
       <r>     7.1966    89.7024   268.6101 </r>
       <r>     7.2536    58.4145   271.9363 </r>
       <r>     7.3105     1.1183   272.0000 </r>
       <r>     7.3674     0.0000   272.0000 </r>
       <r>     7.4244     0.0000   272.0000 </r>
       <r>     7.4813     0.0000   272.0000 </r>
       <r>     7.5383     0.0000   272.0000 </r>
       <r>     7.5952     0.5719   272.0326 </r>
       <r>     7.6521   167.6966   281.5816 </r>
       <r>     7.7091    55.9471   284.7673 </r>
       <r>     7.7660    47.8989   287.4948 </r>
       <r>     7.8230     0.0913   287.5000 </r>
       <r>     7.8799     0.0012   287.5001 </r>
       <r>     7.9369    43.4818   289.9760 </r>
       <r>     7.9938    61.8790   293.4995 </r>
       <r>     8.0507    27.8529   295.0856 </r>
       <r>     8.1077    78.7918   299.5721 </r>
       <r>     8.1646   145.5704   307.8612 </r>
       <r>     8.2216    11.2178   308.5000 </r>
       <r>     8.2785     3.5603   308.7027 </r>
       <r>     8.3355   106.9069   314.7902 </r>
       <r>     8.3924     8.0741   315.2500 </r>
       <r>     8.4493     0.0000   315.2500 </r>
       <r>     8.5063     0.0555   315.2532 </r>
       <r>     8.5632    80.9356   319.8618 </r>
       <r>     8.6202    24.3787   321.2500 </r>
       <r>     8.6771     0.0001   321.2500 </r>
       <r>     8.7341     0.7244   321.2913 </r>
       <r>     8.7910   121.5229   328.2110 </r>
       <r>     8.8479    62.0174   331.7424 </r>
       <r>     8.9049     0.1327   331.7500 </r>
       <r>     8.9618     0.0000   331.7500 </r>
       <r>     9.0188     0.1624   331.7592 </r>
       <r>     9.0757    12.5018   332.4711 </r>
       <r>     9.1326     0.5070   332.5000 </r>
       <r>     9.1896     0.0748   332.5043 </r>
       <r>     9.2465    30.5301   334.2427 </r>
       <r>     9.3035     7.0773   334.6457 </r>
       <r>     9.3604    23.6910   335.9947 </r>
       <r>     9.4174     0.0926   336.0000 </r>
       <r>     9.4743     0.0000   336.0000 </r>
       <r>     9.5312     0.0000   336.0000 </r>
       <r>     9.5882     0.0000   336.0000 </r>
       <r>     9.6451     0.0000   336.0000 </r>
       <r>     9.7021     0.0000   336.0000 </r>
       <r>     9.7590     0.0000   336.0000 </r>
       <r>     9.8160     0.0000   336.0000 </r>
       <r>     9.8729     0.0000   336.0000 </r>
       <r>     9.9298     0.0000   336.0000 </r>
       <r>     9.9868     0.0000   336.0000 </r>
       <r>    10.0437     0.0000   336.0000 </r>
       <r>    10.1007     0.0000   336.0000 </r>
      </set>
     </set>
    </array>
   </total>
  </dos>
 </calculation>
 <structure name="finalpos" >
  <crystal>
   <varray name="basis" >
    <v>      10.86914512      -0.00000000      -0.00000000 </v>
    <v>      -0.00000000      10.86914512       0.00000000 </v>
    <v>       0.00000000       0.00000000      10.86914512 </v>
   </varray>
   <i name="volume">   1284.06249692 </i>
   <varray name="rec_basis" >
    <v>       0.09200356       0.00000000      -0.00000000 </v>
    <v>       0.00000000       0.09200356      -0.00000000 </v>
    <v>       0.00000000      -0.00000000       0.09200356 </v>
   </varray>
  </crystal>
  <varray name="positions" >
   <v>       0.25092004       0.25000000       0.25000000 </v>
   <v>       0.75000000       0.25000000       0.25000000 </v>
   <v>       0.25000000       0.75000000       0.25000000 </v>
   <v>       0.75000000       0.75000000       0.25000000 </v>
   <v>       0.25000000       0.25000000       0.75000000 </v>
   <v>       0.75000000       0.25000000       0.75000000 </v>
   <v>       0.25000000       0.75000000       0.75000000 </v>
   <v>       0.75000000       0.75000000       0.75000000 </v>
   <v>       0.25000000       0.99907996       0.00000000 </v>
   <v>       0.75000000       0.00000000       0.00000000 </v>
   <v>       0.25000000       0.50000000       0.00000000 </v>
   <v>       0.75000000       0.50000000       0.00000000 </v>
   <v>       0.25000000       0.00000000       0.50000000 </v>
   <v>       0.75000000       0.00000000       0.50000000 </v>
   <v>       0.25000000       0.50000000       0.50000000 </v>
   <v>       0.75000000       0.50000000       0.50000000 </v>
   <v>       0.00000000       0.25000000       0.00000000 </v>
   <v>       0.50000000       0.25000000       0.00000000 </v>
   <v>       0.00000000       0.75000000       0.00000000 </v>
   <v>       0.50000000       0.75000000       0.00000000 </v>
   <v>       0.00000000       0.25000000       0.50000000 </v>
   <v>       0.50000000       0.25000000       0.50000000 </v>
   <v>       0.00000000       0.75000000       0.50000000 </v>
   <v>       0.50000000       0.75000000       0.50000000 </v>
   <v>       0.00000000       0.00000000       0.25000000 </v>
   <v>       0.50000000       0.00000000       0.25000000 </v>
   <v>       0.00000000       0.50000000       0.25000000 </v>
   <v>       0.50000000       0.50000000       0.25000000 </v>
   <v>       0.00000000       0.00000000       0.75000000 </v>
   <v>       0.50000000       0.00000000       0.75000000 </v>
   <v>       0.00000000       0.50000000       0.75000000 </v>
   <v>       0.50000000       0.50000000       0.75000000 </v>
   <v>       0.37500000       0.37500000       0.37500000 </v>
   <v>       0.87500000       0.37500000       0.37500000 </v>
   <v>       0.37500000       0.87500000       0.37500000 </v>
   <v>       0.87500000       0.87500000       0.37500000 </v>
   <v>       0.37500000       0.37500000       0.87500000 </v>
   <v>       0.87500000       0.37500000       0.87500000 </v>
   <v>       0.37500000       0.87500000       0.87500000 </v>
   <v>       0.87500000       0.87500000       0.87500000 </v>
   <v>       0.37500000       0.12500000       0.12500000 </v>
   <v>       0.87500000       0.12500000       0.12500000 </v>
   <v>       0.37500000       0.62500000       0.12500000 </v>
   <v>       0.87500000       0.62500000       0.12500000 </v>
   <v>       0.37500000       0.12500000       0.62500000 </v>
   <v>       0.87500000       0.12500000       0.62500000 </v>
   <v>       0.37500000       0.62500000       0.62500000 </v>
   <v>       0.87500000       0.62500000       0.62500000 </v>
   <v>       0.12500000       0.37500000       0.12500000 </v>
   <v>       0.62500000       0.37500000       0.12500000 </v>
   <v>       0.12500000       0.87500000       0.12500000 </v>
   <v>       0.62500000       0.87500000       0.12500000 </v>
   <v>       0.12500000       0.37500000       0.62500000 </v>
   <v>       0.62500000       0.37500000       0.62500000 </v>
   <v>       0.12500000       0.87500000       0.62500000 </v>
   <v>       0.62500000       0.87500000       0.62500000 </v>
   <v>       0.12500000       0.12500000       0.37500000 </v>
   <v>       0.62500000       0.12500000       0.37500000 </v>
   <v>       0.12500000       0.62500000       0.37500000 </v>
   <v>       0.62500000       0.62500000       0.37500000 </v>
   <v>       0.12500000       0.12500000       0.87500000 </v>
   <v>       0.62500000       0.12500000       0.87500000 </v>
   <v>       0.12500000       0.62500000       0.87500000 </v>
   <v>       0.62500000       0.62500000       0.87500000 </v>
  </varray>
 </structure>
</modeling>
