   2   2   0   0
  0.2019411E+02  0.3851145E-09  0.3851145E-09  0.3851145E-09  0.5000000E-15
  1.000000000000000E-004
  CAR 
 unknown system                          
     16.83017546     -7.28948904  301      5.83562839      1.00000000
     -7.289  0.0000E+00  0.0000E+00
     -7.209  0.0000E+00  0.0000E+00
     -7.129  0.0000E+00  0.0000E+00
     -7.048  0.0000E+00  0.0000E+00
     -6.968  0.0000E+00  0.0000E+00
     -6.887  0.0000E+00  0.0000E+00
     -6.807  0.0000E+00  0.0000E+00
     -6.727  0.0000E+00  0.0000E+00
     -6.646  0.0000E+00  0.0000E+00
     -6.566  0.0000E+00  0.0000E+00
     -6.486  0.0000E+00  0.0000E+00
     -6.405  0.0000E+00  0.0000E+00
     -6.325  0.0000E+00  0.0000E+00
     -6.244  0.5775E-04  0.4643E-05
     -6.164  0.3811E+00  0.3065E-01
     -6.084  0.7522E-02  0.3125E-01
     -6.003  0.0000E+00  0.3125E-01
     -5.923  0.0000E+00  0.3125E-01
     -5.842  0.0000E+00  0.3125E-01
     -5.762  0.0000E+00  0.3125E-01
     -5.682  0.0000E+00  0.3125E-01
     -5.601  0.0000E+00  0.3125E-01
     -5.521  0.0000E+00  0.3125E-01
     -5.440  0.2202E-02  0.3143E-01
     -5.360  0.3088E+01  0.2797E+00
     -5.280  0.1965E-01  0.2812E+00
     -5.199  0.2017E-08  0.2813E+00
     -5.119  0.8590E+00  0.3503E+00
     -5.038  0.1473E+01  0.4687E+00
     -4.958  0.1033E-06  0.4688E+00
     -4.878  0.0000E+00  0.4688E+00
     -4.797  0.0000E+00  0.4688E+00
     -4.717  0.0000E+00  0.4688E+00
     -4.636  0.0000E+00  0.4688E+00
     -4.556  0.0000E+00  0.4688E+00
     -4.476  0.0000E+00  0.4688E+00
     -4.395  0.0000E+00  0.4688E+00
     -4.315  0.0000E+00  0.4688E+00
     -4.234  0.1794E-07  0.4688E+00
     -4.154  0.2165E+01  0.6428E+00
     -4.074  0.2499E+01  0.8437E+00
     -3.993  0.5142E-07  0.8438E+00
     -3.913  0.1856E-03  0.8438E+00
     -3.832  0.1520E+01  0.9660E+00
     -3.752  0.3446E-01  0.9687E+00
     -3.672  0.0000E+00  0.9688E+00
     -3.591  0.9321E-14  0.9688E+00
     -3.511  0.1116E+00  0.9777E+00
     -3.430  0.9214E+01  0.1719E+01
     -3.350  0.2849E-02  0.1719E+01
     -3.270  0.0000E+00  0.1719E+01
     -3.189  0.0000E+00  0.1719E+01
     -3.109  0.0000E+00  0.1719E+01
     -3.028  0.0000E+00  0.1719E+01
     -2.948  0.0000E+00  0.1719E+01
     -2.868  0.0000E+00  0.1719E+01
     -2.787  0.0000E+00  0.1719E+01
     -2.707  0.0000E+00  0.1719E+01
     -2.626  0.0000E+00  0.1719E+01
     -2.546  0.0000E+00  0.1719E+01
     -2.466  0.0000E+00  0.1719E+01
     -2.385  0.0000E+00  0.1719E+01
     -2.305  0.0000E+00  0.1719E+01
     -2.224  0.0000E+00  0.1719E+01
     -2.144  0.2108E-08  0.1719E+01
     -2.064  0.8652E+00  0.1788E+01
     -1.983  0.1467E+01  0.1906E+01
     -1.903  0.9812E+00  0.1985E+01
     -1.822  0.3683E+01  0.2281E+01
     -1.742  0.2475E-05  0.2281E+01
     -1.662  0.0000E+00  0.2281E+01
     -1.581  0.0000E+00  0.2281E+01
     -1.501  0.0000E+00  0.2281E+01
     -1.420  0.0000E+00  0.2281E+01
     -1.340  0.7338E-12  0.2281E+01
     -1.260  0.1136E+00  0.2290E+01
     -1.179  0.1441E+01  0.2406E+01
     -1.099  0.1803E-04  0.2406E+01
     -1.018  0.0000E+00  0.2406E+01
     -0.938  0.0000E+00  0.2406E+01
     -0.858  0.0000E+00  0.2406E+01
     -0.777  0.0000E+00  0.2406E+01
     -0.697  0.7580E-04  0.2406E+01
     -0.616  0.8538E+01  0.3093E+01
     -0.536  0.7902E+00  0.3156E+01
     -0.456  0.0000E+00  0.3156E+01
     -0.375  0.0000E+00  0.3156E+01
     -0.295  0.0000E+00  0.3156E+01
     -0.214  0.0000E+00  0.3156E+01
     -0.134  0.0000E+00  0.3156E+01
     -0.054  0.0000E+00  0.3156E+01
      0.027  0.0000E+00  0.3156E+01
      0.107  0.0000E+00  0.3156E+01
      0.188  0.5933E-07  0.3156E+01
      0.268  0.2545E+01  0.3361E+01
      0.348  0.2119E+01  0.3531E+01
      0.429  0.0000E+00  0.3531E+01
      0.509  0.0000E+00  0.3531E+01
      0.590  0.0000E+00  0.3531E+01
      0.670  0.0000E+00  0.3531E+01
      0.750  0.0000E+00  0.3531E+01
      0.831  0.0000E+00  0.3531E+01
      0.911  0.0000E+00  0.3531E+01
      0.992  0.0000E+00  0.3531E+01
      1.072  0.0000E+00  0.3531E+01
      1.152  0.0000E+00  0.3531E+01
      1.233  0.0000E+00  0.3531E+01
      1.313  0.0000E+00  0.3531E+01
      1.394  0.0000E+00  0.3531E+01
      1.474  0.0000E+00  0.3531E+01
      1.554  0.0000E+00  0.3531E+01
      1.635  0.0000E+00  0.3531E+01
      1.715  0.3525E-09  0.3531E+01
      1.796  0.7948E+00  0.3595E+01
      1.876  0.6326E+01  0.4104E+01
      1.956  0.2359E+01  0.4293E+01
      2.037  0.2958E+01  0.4531E+01
      2.117  0.9713E-05  0.4531E+01
      2.198  0.7743E+01  0.5154E+01
      2.278  0.3917E+01  0.5469E+01
      2.358  0.3407E-03  0.5469E+01
      2.439  0.0000E+00  0.5469E+01
      2.519  0.0000E+00  0.5469E+01
      2.600  0.0000E+00  0.5469E+01
      2.680  0.0000E+00  0.5469E+01
      2.760  0.0000E+00  0.5469E+01
      2.841  0.1508E-02  0.5469E+01
      2.921  0.2315E+01  0.5655E+01
      3.002  0.1586E-01  0.5656E+01
      3.082  0.0000E+00  0.5656E+01
      3.162  0.0000E+00  0.5656E+01
      3.243  0.0000E+00  0.5656E+01
      3.323  0.0000E+00  0.5656E+01
      3.404  0.0000E+00  0.5656E+01
      3.484  0.1495E-02  0.5656E+01
      3.564  0.9155E+01  0.6392E+01
      3.645  0.1721E+00  0.6406E+01
      3.725  0.0000E+00  0.6406E+01
      3.806  0.6064E-02  0.6407E+01
      3.886  0.4641E+01  0.6780E+01
      3.966  0.1750E-01  0.6781E+01
      4.047  0.0000E+00  0.6781E+01
      4.127  0.0000E+00  0.6781E+01
      4.208  0.0000E+00  0.6781E+01
      4.288  0.0000E+00  0.6781E+01
      4.368  0.1525E-02  0.6781E+01
      4.449  0.4610E+01  0.7152E+01
      4.529  0.3095E+00  0.7177E+01
      4.610  0.2853E+01  0.7406E+01
      4.690  0.2701E-04  0.7406E+01
      4.770  0.0000E+00  0.7406E+01
      4.851  0.0000E+00  0.7406E+01
      4.931  0.3188E-03  0.7406E+01
      5.012  0.5995E+01  0.7888E+01
      5.092  0.2232E+00  0.7906E+01
      5.172  0.0000E+00  0.7906E+01
      5.253  0.0000E+00  0.7906E+01
      5.333  0.0000E+00  0.7906E+01
      5.414  0.0000E+00  0.7906E+01
      5.494  0.0000E+00  0.7906E+01
      5.574  0.0000E+00  0.7906E+01
      5.655  0.8695E-11  0.7906E+01
      5.735  0.1676E+00  0.7920E+01
      5.816  0.9985E+00  0.8000E+01
      5.896  0.2223E-05  0.8000E+01
      5.976  0.0000E+00  0.8000E+01
      6.057  0.0000E+00  0.8000E+01
      6.137  0.0000E+00  0.8000E+01
      6.218  0.2589E-15  0.8000E+01
      6.298  0.1446E-01  0.8001E+01
      6.378  0.2316E+01  0.8187E+01
      6.459  0.1691E-02  0.8188E+01
      6.539  0.0000E+00  0.8188E+01
      6.620  0.0000E+00  0.8188E+01
      6.700  0.4950E-06  0.8188E+01
      6.780  0.1714E+01  0.8325E+01
      6.861  0.6184E+00  0.8375E+01
      6.941  0.0000E+00  0.8375E+01
      7.022  0.0000E+00  0.8375E+01
      7.102  0.2137E-02  0.8375E+01
      7.182  0.1030E+02  0.9203E+01
      7.263  0.5857E+00  0.9250E+01
      7.343  0.0000E+00  0.9250E+01
      7.424  0.0000E+00  0.9250E+01
      7.504  0.0000E+00  0.9250E+01
      7.584  0.1849E-08  0.9250E+01
      7.665  0.1075E+01  0.9336E+01
      7.745  0.2034E+01  0.9500E+01
      7.826  0.1918E-06  0.9500E+01
      7.906  0.0000E+00  0.9500E+01
      7.986  0.2061E-12  0.9500E+01
      8.067  0.1781E+00  0.9514E+01
      8.147  0.4486E+01  0.9875E+01
      8.227  0.1327E+00  0.9886E+01
      8.308  0.1034E+01  0.9969E+01
      8.388  0.4402E-05  0.9969E+01
      8.469  0.0000E+00  0.9969E+01
      8.549  0.0000E+00  0.9969E+01
      8.629  0.0000E+00  0.9969E+01
      8.710  0.2074E-02  0.9969E+01
      8.790  0.2318E+01  0.1016E+02
      8.871  0.1220E-01  0.1016E+02
      8.951  0.1742E-01  0.1016E+02
      9.031  0.3392E+01  0.1043E+02
      9.112  0.8894E-01  0.1044E+02
      9.192  0.4321E+01  0.1078E+02
      9.273  0.1898E+01  0.1094E+02
      9.353  0.0000E+00  0.1094E+02
      9.433  0.0000E+00  0.1094E+02
      9.514  0.0000E+00  0.1094E+02
      9.594  0.0000E+00  0.1094E+02
      9.675  0.0000E+00  0.1094E+02
      9.755  0.0000E+00  0.1094E+02
      9.835  0.2684E-06  0.1094E+02
      9.916  0.3029E+01  0.1118E+02
      9.996  0.1635E+01  0.1131E+02
     10.077  0.2023E+01  0.1148E+02
     10.157  0.7305E+01  0.1206E+02
     10.237  0.4417E-05  0.1206E+02
     10.318  0.0000E+00  0.1206E+02
     10.398  0.2622E-04  0.1206E+02
     10.479  0.4207E+01  0.1240E+02
     10.559  0.4569E+00  0.1244E+02
     10.639  0.1018E+01  0.1252E+02
     10.720  0.3646E+01  0.1281E+02
     10.800  0.3877E+01  0.1312E+02
     10.881  0.7876E+00  0.1319E+02
     10.961  0.0000E+00  0.1319E+02
     11.041  0.0000E+00  0.1319E+02
     11.122  0.0000E+00  0.1319E+02
     11.202  0.0000E+00  0.1319E+02
     11.283  0.7768E-14  0.1319E+02
     11.363  0.1049E+00  0.1320E+02
     11.443  0.1224E+02  0.1418E+02
     11.524  0.1650E+01  0.1431E+02
     11.604  0.8187E+01  0.1497E+02
     11.685  0.1141E+01  0.1506E+02
     11.765  0.3135E+01  0.1531E+02
     11.845  0.1529E+01  0.1544E+02
     11.926  0.0000E+00  0.1544E+02
     12.006  0.0000E+00  0.1544E+02
     12.087  0.0000E+00  0.1544E+02
     12.167  0.0000E+00  0.1544E+02
     12.247  0.0000E+00  0.1544E+02
     12.328  0.0000E+00  0.1544E+02
     12.408  0.1726E-15  0.1544E+02
     12.489  0.1611E-01  0.1544E+02
     12.569  0.3091E+01  0.1569E+02
     12.649  0.2796E-02  0.1569E+02
     12.730  0.0000E+00  0.1569E+02
     12.810  0.0000E+00  0.1569E+02
     12.891  0.0000E+00  0.1569E+02
     12.971  0.0000E+00  0.1569E+02
     13.051  0.0000E+00  0.1569E+02
     13.132  0.2252E-10  0.1569E+02
     13.212  0.2594E+00  0.1571E+02
     13.293  0.1295E+01  0.1581E+02
     13.373  0.1848E-05  0.1581E+02
     13.453  0.0000E+00  0.1581E+02
     13.534  0.0000E+00  0.1581E+02
     13.614  0.0000E+00  0.1581E+02
     13.695  0.0000E+00  0.1581E+02
     13.775  0.0000E+00  0.1581E+02
     13.855  0.0000E+00  0.1581E+02
     13.936  0.0000E+00  0.1581E+02
     14.016  0.0000E+00  0.1581E+02
     14.097  0.0000E+00  0.1581E+02
     14.177  0.0000E+00  0.1581E+02
     14.257  0.0000E+00  0.1581E+02
     14.338  0.0000E+00  0.1581E+02
     14.418  0.0000E+00  0.1581E+02
     14.499  0.0000E+00  0.1581E+02
     14.579  0.0000E+00  0.1581E+02
     14.659  0.0000E+00  0.1581E+02
     14.740  0.0000E+00  0.1581E+02
     14.820  0.0000E+00  0.1581E+02
     14.901  0.0000E+00  0.1581E+02
     14.981  0.0000E+00  0.1581E+02
     15.061  0.0000E+00  0.1581E+02
     15.142  0.0000E+00  0.1581E+02
     15.222  0.0000E+00  0.1581E+02
     15.303  0.0000E+00  0.1581E+02
     15.383  0.0000E+00  0.1581E+02
     15.463  0.0000E+00  0.1581E+02
     15.544  0.0000E+00  0.1581E+02
     15.624  0.1049E-13  0.1581E+02
     15.705  0.4513E-01  0.1582E+02
     15.785  0.2287E+01  0.1600E+02
     15.865  0.3465E-03  0.1600E+02
     15.946  0.0000E+00  0.1600E+02
     16.026  0.0000E+00  0.1600E+02
     16.107  0.0000E+00  0.1600E+02
     16.187  0.0000E+00  0.1600E+02
     16.267  0.0000E+00  0.1600E+02
     16.348  0.0000E+00  0.1600E+02
     16.428  0.0000E+00  0.1600E+02
     16.509  0.0000E+00  0.1600E+02
     16.589  0.0000E+00  0.1600E+02
     16.669  0.0000E+00  0.1600E+02
     16.750  0.0000E+00  0.1600E+02
     16.830  0.0000E+00  0.1600E+02
