    2    2    1    1
  0.2019411E+02  0.3851145E-09  0.3851145E-09  0.3851145E-09  0.5000000E-15
  1.000000000000000E-004
  CAR 
 unknown system                          
      8      8      8
 
  0.0000000E+00  0.0000000E+00  0.0000000E+00  0.1562500E-01
      1         -6.193141   1.000000
      2          5.750172   1.000000
      3          5.750173   1.000000
      4          5.750173   1.000000
      5          8.244572   0.000000
      6          8.244572   0.000000
      7          8.244572   0.000000
      8          8.975183   0.000000
 
  0.2500000E+00  0.2255530E-17  0.2163871E-17  0.1250000E+00
      1         -5.395183   1.000000
      2          1.804876   1.000000
      3          4.986077   1.000000
      4          4.986077   1.000000
      5          7.670312   0.000000
      6          9.185078   0.000000
      7          9.185078   0.000000
      8         12.524888   0.000000
 
  0.5000000E+00  0.4511060E-17  0.4327742E-17  0.6250000E-01
      1         -3.860777   1.000000
      2         -1.239019   1.000000
      3          4.548788   1.000000
      4          4.548788   1.000000
      5          7.174448   0.000000
      6          9.004589   0.000000
      7          9.004589   0.000000
      8         13.225897   0.000000
 
  0.2500000E+00  0.2500000E+00  0.4419401E-16  0.9375000E-01
      1         -5.113963   1.000000
      2          2.226753   1.000000
      3          3.848145   1.000000
      4          3.848145   1.000000
      5          6.771442   0.000000
      6          8.754081   0.000000
      7         11.438115   0.000000
      8         11.438115   0.000000
 
  0.5000000E+00  0.2500000E+00  0.7654984E-16  0.3750000E+00
      1         -3.478804   1.000000
      2         -0.635814   1.000000
      3          2.184352   1.000000
      4          3.534847   1.000000
      5          7.151466   0.000000
      6         10.087739   0.000000
      7         11.395325   0.000000
      8         11.587796   0.000000
 
 -0.2500000E+00  0.2500000E+00  0.4511060E-17  0.1875000E+00
      1         -4.152660   1.000000
      2          0.266382   1.000000
      3          1.961234   1.000000
      4          4.416549   1.000000
      5          8.091760   0.000000
      6         10.460374   0.000000
      7         10.786702   0.000000
      8         11.758738   0.000000
 
  0.5000000E+00  0.5000000E+00  0.8838802E-16  0.4687500E-01
      1         -2.058907   1.000000
      2         -2.058907   1.000000
      3          2.886271   1.000000
      4          2.886272   1.000000
      5          6.333285   0.000000
      6          6.333285   0.000000
      7         15.733827   0.000000
      8         15.733827   0.000000
 
 -0.2500000E+00  0.5000000E+00  0.2500000E+00  0.9375000E-01
      1         -1.891377   1.000000
      2         -1.891377   1.000000
      3          1.860712   1.000000
      4          1.860712   1.000000
      5          9.910442   0.000000
      6          9.910442   0.000000
      7         10.650461   0.000000
      8         10.650461   0.000000
