 running on    2 total cores
 distrk:  each k-point on    2 cores,    1 groups
 distr:  one band on    1 cores,    2 groups
 vasp.6.3.0 20Jan22 (build Aug 13 2022 13:28:16) complex                        
  
 POSCAR found type information on POSCAR Si
 POSCAR found :  1 types and       2 ions
 scaLAPACK will be used
 -----------------------------------------------------------------------------
|                                                                             |
|               ----> ADVICE to this user running VASP <----                  |
|                                                                             |
|     You enforced a specific xc type in the INCAR file but a different       |
|     type was found in the POTCAR file.                                      |
|     I HOPE YOU KNOW WHAT YOU ARE DOING!                                     |
|                                                                             |
 -----------------------------------------------------------------------------

 LDA part: xc-table for Pade appr. of Perdew
 POSCAR, INCAR and KPOINTS ok, starting setup
 FFT: planning ... GRIDC
 FFT: planning ... GRID_SOFT
 FFT: planning ... GRID
 WAVECAR not read
 entering main loop
       N       E                     dE             d eps       ncg     rms          rms(c)
DAV:   1    -0.311299381315E+00   -0.31130E+00   -0.25969E+03   136   0.536E+02
DAV:   2    -0.114170079453E+02   -0.11106E+02   -0.10395E+02   216   0.621E+01
DAV:   3    -0.115390120204E+02   -0.12200E+00   -0.12200E+00   160   0.775E+00
DAV:   4    -0.115395505804E+02   -0.53856E-03   -0.53856E-03   200   0.537E-01
DAV:   5    -0.115395510766E+02   -0.49621E-06   -0.49618E-06   160   0.118E-02    0.507E+00
DAV:   6    -0.113700392059E+02    0.16951E+00   -0.10364E-01   136   0.165E+00    0.305E+00
DAV:   7    -0.112922331521E+02    0.77806E-01   -0.18744E-01   152   0.232E+00    0.200E-01
DAV:   8    -0.112930185083E+02   -0.78536E-03   -0.49522E-03   144   0.538E-01    0.689E-02
DAV:   9    -0.112930953050E+02   -0.76797E-04   -0.11056E-04   184   0.807E-02    0.528E-02
DAV:  10    -0.112931126703E+02   -0.17365E-04   -0.19906E-05   144   0.327E-02    0.133E-02
DAV:  11    -0.112931123376E+02    0.33261E-06   -0.17840E-07   176   0.327E-03    0.498E-03
DAV:  12    -0.112931122146E+02    0.12308E-06   -0.74559E-08   144   0.224E-03    0.486E-04
DAV:  13    -0.112931121906E+02    0.23921E-07   -0.25869E-09   144   0.300E-04    0.276E-04
DAV:  14    -0.112931121909E+02   -0.30232E-09   -0.20539E-10   120   0.111E-04
   1 F= -.11293112E+02 E0= -.11293112E+02  d E =-.623142E-11
 Linear response reoptimize wavefunctions to high precision
DAV:   1    -0.112931121947E+02   -0.37479E-08   -0.16381E-11   136   0.321E-05
DAV:   2    -0.112931121947E+02   -0.22737E-12   -0.28397E-12    80   0.109E-05
 Linear response G [H, r] |phi>, progress :
  Direction:   1
       N       E                     dE             d eps       ncg     rms
RMM:   1    -0.531967301794E+02   -0.53197E+02   -0.10866E+02   302   0.527E+01
RMM:   2    -0.445457091361E+02    0.86510E+01   -0.35201E+00   203   0.134E+01
RMM:   3    -0.445400731930E+02    0.56359E-02   -0.11163E-01   209   0.209E+00
RMM:   4    -0.445384014990E+02    0.16717E-02   -0.29164E-03   211   0.353E-01
RMM:   5    -0.445383845915E+02    0.16908E-04   -0.74775E-05   208   0.569E-02
RMM:   6    -0.445383841907E+02    0.40085E-06   -0.29009E-06   208   0.108E-02
RMM:   7    -0.445383841694E+02    0.21313E-07    0.12121E-06   208   0.194E-03
RMM:   8    -0.445383840796E+02    0.89747E-07    0.70256E-06   182   0.383E-04
RMM:   9    -0.445383841421E+02   -0.62457E-07   -0.23746E-06   134   0.953E-05
RMM:  10    -0.445383841008E+02    0.41246E-07    0.22674E-06    98   0.428E-05
RMM:  11    -0.445383841913E+02   -0.90427E-07    0.00000E+00    73   0.404E-05
RMM:  12    -0.445383841913E+02    0.00000E+00    0.00000E+00    48   0.404E-05
 Linear response G [H, r] |phi>, progress :
  Direction:   2
       N       E                     dE             d eps       ncg     rms
RMM:   1    -0.496209773580E+02   -0.49621E+02   -0.78219E+01   296   0.524E+01
RMM:   2    -0.446850470674E+02    0.49359E+01   -0.31524E+00   203   0.130E+01
RMM:   3    -0.446808163863E+02    0.42307E-02   -0.10450E-01   207   0.201E+00
RMM:   4    -0.446793597193E+02    0.14567E-02   -0.25692E-03   213   0.340E-01
RMM:   5    -0.446793563557E+02    0.33636E-05   -0.66938E-05   206   0.547E-02
RMM:   6    -0.446793562786E+02    0.77158E-07   -0.31609E-06   210   0.104E-02
RMM:   7    -0.446793562663E+02    0.12276E-07   -0.37123E-06   206   0.187E-03
RMM:   8    -0.446793565067E+02   -0.24043E-06   -0.22478E-05   180   0.370E-04
RMM:   9    -0.446793565100E+02   -0.32771E-08    0.51380E-06   129   0.915E-05
RMM:  10    -0.446793565172E+02   -0.71759E-08   -0.40958E-07    99   0.431E-05
RMM:  11    -0.446793565182E+02   -0.10594E-08    0.00000E+00    65   0.409E-05
 Linear response G [H, r] |phi>, progress :
  Direction:   3
       N       E                     dE             d eps       ncg     rms
RMM:   1    -0.309671973556E+02   -0.30967E+02    0.60081E+01   287   0.469E+01
RMM:   2    -0.233063163282E+02    0.76609E+01   -0.22767E+00   198   0.105E+01
RMM:   3    -0.233247143955E+02   -0.18398E-01   -0.61007E-02   197   0.159E+00
RMM:   4    -0.233242174879E+02    0.49691E-03   -0.23097E-03   204   0.277E-01
RMM:   5    -0.233241970756E+02    0.20412E-04   -0.66993E-05   202   0.488E-02
RMM:   6    -0.233241965883E+02    0.48732E-06   -0.32220E-06   193   0.953E-03
RMM:   7    -0.233241965674E+02    0.20945E-07   -0.26466E-06   197   0.183E-03
RMM:   8    -0.233241966053E+02   -0.37991E-07   -0.14403E-05   174   0.378E-04
RMM:   9    -0.233241966031E+02    0.22371E-08   -0.57941E-06   137   0.955E-05
RMM:  10    -0.233241965746E+02    0.28466E-07   -0.36353E-06    96   0.434E-05
RMM:  11    -0.233241965739E+02    0.70657E-09    0.00000E+00    60   0.414E-05
 Linear response to external field (no local field effect), progress :
  Direction:   1
       N       E                     dE             d eps       ncg     rms          rms(c)
RMM:   1    -0.338463253871E+01   -0.33846E+01   -0.19058E+01   254   0.616E+00
RMM:   2    -0.340992745697E+01   -0.25295E-01   -0.42630E-02   198   0.116E+00
RMM:   3    -0.341080696925E+01   -0.87951E-03   -0.75592E-04   206   0.125E-01
RMM:   4    -0.341082167433E+01   -0.14705E-04   -0.22007E-05   205   0.196E-02
RMM:   5    -0.341082215837E+01   -0.48404E-06   -0.55660E-07   194   0.304E-03
RMM:   6    -0.341082217169E+01   -0.13325E-07   -0.18648E-08   175   0.510E-04
RMM:   7    -0.341082217236E+01   -0.67206E-09    0.11865E-09   133   0.104E-04
 change of polarisation eV/A/(eV/A) component  1 :     6.822     3.524     1.160
 dielectric tensor                  component  1 :    31.563    15.787     5.197
 Linear response to external field (no local field effect), progress :
  Direction:   2
       N       E                     dE             d eps       ncg     rms          rms(c)
RMM:   1    -0.338698717438E+01   -0.33870E+01   -0.19066E+01   258   0.628E+00
RMM:   2    -0.341157301105E+01   -0.24586E-01   -0.40904E-02   198   0.113E+00
RMM:   3    -0.341238575971E+01   -0.81275E-03   -0.71442E-04   204   0.121E-01
RMM:   4    -0.341239959323E+01   -0.13834E-04   -0.19965E-05   199   0.188E-02
RMM:   5    -0.341240002650E+01   -0.43327E-06   -0.53816E-07   198   0.292E-03
RMM:   6    -0.341240003892E+01   -0.12420E-07   -0.22747E-08   173   0.497E-04
RMM:   7    -0.341240003925E+01   -0.33105E-09    0.17189E-09   134   0.101E-04
 change of polarisation eV/A/(eV/A) component  2 :     3.524     6.825    -1.160
 dielectric tensor                  component  2 :    15.787    31.577    -5.197
 Linear response to external field (no local field effect), progress :
  Direction:   3
       N       E                     dE             d eps       ncg     rms          rms(c)
RMM:   1    -0.153930484084E+01   -0.15393E+01   -0.93499E+00   251   0.413E+00
RMM:   2    -0.155417334725E+01   -0.14869E-01   -0.25178E-02   197   0.845E-01
RMM:   3    -0.155473632071E+01   -0.56297E-03   -0.42855E-04   197   0.932E-02
RMM:   4    -0.155474549263E+01   -0.91719E-05   -0.13842E-05   197   0.138E-02
RMM:   5    -0.155474580559E+01   -0.31297E-06   -0.36272E-07   199   0.219E-03
RMM:   6    -0.155474581407E+01   -0.84780E-08   -0.16038E-08   164   0.354E-04
 change of polarisation eV/A/(eV/A) component  3 :     1.160    -1.160     3.109
 dielectric tensor                  component  3 :     5.197    -5.197    14.932
 Linear response to external field, progress :
  Direction:   1
       N       E                     dE             d eps       ncg     rms          rms(c)
RMM:   1    -0.276931466338E+01   -0.27693E+01   -0.15815E+01   406   0.543E+00
RMM:   2    -0.279184331583E+01   -0.22529E-01   -0.37254E-02   319   0.105E+00    0.212E+00
RMM:   3    -0.273939097406E+01    0.52452E-01   -0.41233E-02   322   0.115E+00    0.120E+00
RMM:   4    -0.282975845135E+01   -0.90367E-01   -0.47363E-02   316   0.130E+00    0.193E-01
RMM:   5    -0.285514873446E+01   -0.25390E-01   -0.14743E-03   315   0.301E-01    0.470E-02
RMM:   6    -0.285676208664E+01   -0.16134E-02   -0.30369E-05   325   0.447E-02    0.209E-02
RMM:   7    -0.285758082357E+01   -0.81874E-03   -0.64921E-06   323   0.205E-02    0.166E-03
RMM:   8    -0.285762950547E+01   -0.48682E-04   -0.19980E-07   341   0.290E-03    0.532E-04
RMM:   9    -0.285763632630E+01   -0.68208E-05    0.35940E-08   336   0.130E-03    0.177E-04
RMM:  10    -0.285764089908E+01   -0.45728E-05    0.28054E-07   315   0.222E-04    0.413E-05
RMM:  11    -0.285763979725E+01    0.11018E-05   -0.13444E-07   167   0.414E-05    0.103E-05
RMM:  12    -0.285763993622E+01   -0.13897E-06    0.00000E+00    99   0.380E-05    0.208E-06
 change of polarisation eV/A/(eV/A) component  1 :     5.365     2.661     1.133
 dielectric tensor                  component  1 :    25.038    11.920     5.074
 Linear response to external field, progress :
  Direction:   2
       N       E                     dE             d eps       ncg     rms          rms(c)
RMM:   1    -0.277001364205E+01   -0.27700E+01   -0.15822E+01   412   0.556E+00
RMM:   2    -0.279190995813E+01   -0.21896E-01   -0.35657E-02   319   0.104E+00    0.212E+00
RMM:   3    -0.273939417610E+01    0.52516E-01   -0.41125E-02   323   0.115E+00    0.120E+00
RMM:   4    -0.282976012914E+01   -0.90366E-01   -0.47302E-02   315   0.130E+00    0.193E-01
RMM:   5    -0.285514197002E+01   -0.25382E-01   -0.14734E-03   316   0.300E-01    0.470E-02
RMM:   6    -0.285675562175E+01   -0.16137E-02   -0.30084E-05   325   0.446E-02    0.211E-02
RMM:   7    -0.285758162378E+01   -0.82600E-03   -0.65765E-06   320   0.206E-02    0.167E-03
RMM:   8    -0.285762925967E+01   -0.47636E-04   -0.21594E-07   338   0.289E-03    0.532E-04
RMM:   9    -0.285763645302E+01   -0.71933E-05   -0.12498E-07   334   0.130E-03    0.178E-04
RMM:  10    -0.285764105173E+01   -0.45987E-05   -0.33229E-07   315   0.223E-04    0.412E-05
RMM:  11    -0.285763994865E+01    0.11031E-05    0.13275E-08   161   0.403E-05    0.103E-05
RMM:  12    -0.285764008461E+01   -0.13596E-06    0.00000E+00    95   0.376E-05    0.209E-06
 change of polarisation eV/A/(eV/A) component  2 :     2.654     5.365    -1.133
 dielectric tensor                  component  2 :    11.889    25.038    -5.074
 Linear response to external field, progress :
  Direction:   3
       N       E                     dE             d eps       ncg     rms          rms(c)
RMM:   1    -0.277159624300E+01   -0.27716E+01   -0.15838E+01   410   0.556E+00
RMM:   2    -0.279191924110E+01   -0.20323E-01   -0.35788E-02   319   0.104E+00    0.212E+00
RMM:   3    -0.273940017747E+01    0.52519E-01   -0.41052E-02   323   0.115E+00    0.120E+00
RMM:   4    -0.282978988078E+01   -0.90390E-01   -0.47351E-02   315   0.130E+00    0.193E-01
RMM:   5    -0.285515558459E+01   -0.25366E-01   -0.14790E-03   316   0.301E-01    0.469E-02
RMM:   6    -0.285674631029E+01   -0.15907E-02   -0.30179E-05   324   0.445E-02    0.212E-02
RMM:   7    -0.285758036983E+01   -0.83406E-03   -0.66601E-06   320   0.208E-02    0.169E-03
RMM:   8    -0.285762923632E+01   -0.48866E-04   -0.19217E-07   340   0.290E-03    0.537E-04
RMM:   9    -0.285763636901E+01   -0.71327E-05    0.95971E-08   327   0.131E-03    0.181E-04
RMM:  10    -0.285764100078E+01   -0.46318E-05    0.50671E-07   311   0.224E-04    0.410E-05
RMM:  11    -0.285763990559E+01    0.10952E-05    0.34772E-08   175   0.408E-05    0.103E-05
RMM:  12    -0.285764004339E+01   -0.13780E-06    0.00000E+00    93   0.378E-05    0.204E-06
 change of polarisation eV/A/(eV/A) component  3 :     1.126     0.395     5.365
 dielectric tensor                  component  3 :     5.043     1.771    25.038
 Born effective charges drift removed
