unknown system                          
           1
     0.000000    2.723171    2.723171
     2.723171    0.000000    2.723171
     2.723171    2.723171    0.000000
   Si
     2
Direct configuration=     1
   0.50000000  0.50000000  0.50000000
   0.75000000  0.75000000  0.75000000
