  64  64   0   0
  0.2197554E+02  0.1120400E-08  0.1120400E-08  0.1120400E-08  0.5000000E-15
  1.000000000000000E-004
  CAR 
 unknown system                          
     11.05756512    -22.85351857  301     -0.55698105      1.00000000
    -22.854  0.0000E+00  0.0000E+00
    -22.740  0.0000E+00  0.0000E+00
    -22.627  0.0000E+00  0.0000E+00
    -22.514  0.0000E+00  0.0000E+00
    -22.401  0.0000E+00  0.0000E+00
    -22.288  0.0000E+00  0.0000E+00
    -22.175  0.0000E+00  0.0000E+00
    -22.062  0.0000E+00  0.0000E+00
    -21.949  0.0000E+00  0.0000E+00
    -21.836  0.0000E+00  0.0000E+00
    -21.723  0.0000E+00  0.0000E+00
    -21.610  0.0000E+00  0.0000E+00
    -21.497  0.0000E+00  0.0000E+00
    -21.384  0.5172E-05  0.5846E-06
    -21.271  0.1200E+04  0.1356E+03
    -21.158  0.4987E+03  0.1920E+03
    -21.045  0.0000E+00  0.1920E+03
    -20.932  0.0000E+00  0.1920E+03
    -20.819  0.0000E+00  0.1920E+03
    -20.706  0.0000E+00  0.1920E+03
    -20.593  0.0000E+00  0.1920E+03
    -20.480  0.0000E+00  0.1920E+03
    -20.367  0.0000E+00  0.1920E+03
    -20.254  0.0000E+00  0.1920E+03
    -20.141  0.0000E+00  0.1920E+03
    -20.028  0.0000E+00  0.1920E+03
    -19.915  0.0000E+00  0.1920E+03
    -19.802  0.0000E+00  0.1920E+03
    -19.688  0.0000E+00  0.1920E+03
    -19.575  0.0000E+00  0.1920E+03
    -19.462  0.0000E+00  0.1920E+03
    -19.349  0.0000E+00  0.1920E+03
    -19.236  0.0000E+00  0.1920E+03
    -19.123  0.0000E+00  0.1920E+03
    -19.010  0.0000E+00  0.1920E+03
    -18.897  0.0000E+00  0.1920E+03
    -18.784  0.0000E+00  0.1920E+03
    -18.671  0.0000E+00  0.1920E+03
    -18.558  0.0000E+00  0.1920E+03
    -18.445  0.0000E+00  0.1920E+03
    -18.332  0.0000E+00  0.1920E+03
    -18.219  0.0000E+00  0.1920E+03
    -18.106  0.0000E+00  0.1920E+03
    -17.993  0.0000E+00  0.1920E+03
    -17.880  0.0000E+00  0.1920E+03
    -17.767  0.0000E+00  0.1920E+03
    -17.654  0.0000E+00  0.1920E+03
    -17.541  0.0000E+00  0.1920E+03
    -17.428  0.0000E+00  0.1920E+03
    -17.315  0.0000E+00  0.1920E+03
    -17.202  0.0000E+00  0.1920E+03
    -17.089  0.0000E+00  0.1920E+03
    -16.976  0.0000E+00  0.1920E+03
    -16.863  0.0000E+00  0.1920E+03
    -16.750  0.0000E+00  0.1920E+03
    -16.636  0.0000E+00  0.1920E+03
    -16.523  0.0000E+00  0.1920E+03
    -16.410  0.0000E+00  0.1920E+03
    -16.297  0.0000E+00  0.1920E+03
    -16.184  0.0000E+00  0.1920E+03
    -16.071  0.0000E+00  0.1920E+03
    -15.958  0.0000E+00  0.1920E+03
    -15.845  0.0000E+00  0.1920E+03
    -15.732  0.0000E+00  0.1920E+03
    -15.619  0.0000E+00  0.1920E+03
    -15.506  0.0000E+00  0.1920E+03
    -15.393  0.0000E+00  0.1920E+03
    -15.280  0.0000E+00  0.1920E+03
    -15.167  0.0000E+00  0.1920E+03
    -15.054  0.0000E+00  0.1920E+03
    -14.941  0.0000E+00  0.1920E+03
    -14.828  0.0000E+00  0.1920E+03
    -14.715  0.0000E+00  0.1920E+03
    -14.602  0.0000E+00  0.1920E+03
    -14.489  0.0000E+00  0.1920E+03
    -14.376  0.0000E+00  0.1920E+03
    -14.263  0.0000E+00  0.1920E+03
    -14.150  0.0000E+00  0.1920E+03
    -14.037  0.0000E+00  0.1920E+03
    -13.924  0.0000E+00  0.1920E+03
    -13.811  0.0000E+00  0.1920E+03
    -13.698  0.0000E+00  0.1920E+03
    -13.584  0.0000E+00  0.1920E+03
    -13.471  0.1105E-14  0.1920E+03
    -13.358  0.1078E+01  0.1921E+03
    -13.245  0.1888E+02  0.1943E+03
    -13.132  0.4859E+02  0.1997E+03
    -13.019  0.1245E+03  0.2138E+03
    -12.906  0.3683E+03  0.2555E+03
    -12.793  0.4845E+01  0.2560E+03
    -12.680  0.0000E+00  0.2560E+03
    -12.567  0.0000E+00  0.2560E+03
    -12.454  0.0000E+00  0.2560E+03
    -12.341  0.0000E+00  0.2560E+03
    -12.228  0.0000E+00  0.2560E+03
    -12.115  0.0000E+00  0.2560E+03
    -12.002  0.0000E+00  0.2560E+03
    -11.889  0.0000E+00  0.2560E+03
    -11.776  0.0000E+00  0.2560E+03
    -11.663  0.0000E+00  0.2560E+03
    -11.550  0.0000E+00  0.2560E+03
    -11.437  0.0000E+00  0.2560E+03
    -11.324  0.0000E+00  0.2560E+03
    -11.211  0.0000E+00  0.2560E+03
    -11.098  0.0000E+00  0.2560E+03
    -10.985  0.0000E+00  0.2560E+03
    -10.872  0.0000E+00  0.2560E+03
    -10.759  0.0000E+00  0.2560E+03
    -10.646  0.0000E+00  0.2560E+03
    -10.532  0.0000E+00  0.2560E+03
    -10.419  0.0000E+00  0.2560E+03
    -10.306  0.0000E+00  0.2560E+03
    -10.193  0.0000E+00  0.2560E+03
    -10.080  0.0000E+00  0.2560E+03
     -9.967  0.0000E+00  0.2560E+03
     -9.854  0.0000E+00  0.2560E+03
     -9.741  0.0000E+00  0.2560E+03
     -9.628  0.0000E+00  0.2560E+03
     -9.515  0.0000E+00  0.2560E+03
     -9.402  0.0000E+00  0.2560E+03
     -9.289  0.0000E+00  0.2560E+03
     -9.176  0.0000E+00  0.2560E+03
     -9.063  0.0000E+00  0.2560E+03
     -8.950  0.0000E+00  0.2560E+03
     -8.837  0.0000E+00  0.2560E+03
     -8.724  0.0000E+00  0.2560E+03
     -8.611  0.0000E+00  0.2560E+03
     -8.498  0.0000E+00  0.2560E+03
     -8.385  0.0000E+00  0.2560E+03
     -8.272  0.0000E+00  0.2560E+03
     -8.159  0.0000E+00  0.2560E+03
     -8.046  0.0000E+00  0.2560E+03
     -7.933  0.0000E+00  0.2560E+03
     -7.820  0.0000E+00  0.2560E+03
     -7.707  0.0000E+00  0.2560E+03
     -7.594  0.0000E+00  0.2560E+03
     -7.480  0.0000E+00  0.2560E+03
     -7.367  0.0000E+00  0.2560E+03
     -7.254  0.0000E+00  0.2560E+03
     -7.141  0.0000E+00  0.2560E+03
     -7.028  0.0000E+00  0.2560E+03
     -6.915  0.0000E+00  0.2560E+03
     -6.802  0.0000E+00  0.2560E+03
     -6.689  0.0000E+00  0.2560E+03
     -6.576  0.0000E+00  0.2560E+03
     -6.463  0.0000E+00  0.2560E+03
     -6.350  0.0000E+00  0.2560E+03
     -6.237  0.0000E+00  0.2560E+03
     -6.124  0.0000E+00  0.2560E+03
     -6.011  0.0000E+00  0.2560E+03
     -5.898  0.0000E+00  0.2560E+03
     -5.785  0.0000E+00  0.2560E+03
     -5.672  0.0000E+00  0.2560E+03
     -5.559  0.0000E+00  0.2560E+03
     -5.446  0.0000E+00  0.2560E+03
     -5.333  0.0000E+00  0.2560E+03
     -5.220  0.0000E+00  0.2560E+03
     -5.107  0.0000E+00  0.2560E+03
     -4.994  0.0000E+00  0.2560E+03
     -4.881  0.0000E+00  0.2560E+03
     -4.768  0.0000E+00  0.2560E+03
     -4.655  0.0000E+00  0.2560E+03
     -4.542  0.0000E+00  0.2560E+03
     -4.428  0.0000E+00  0.2560E+03
     -4.315  0.0000E+00  0.2560E+03
     -4.202  0.0000E+00  0.2560E+03
     -4.089  0.0000E+00  0.2560E+03
     -3.976  0.0000E+00  0.2560E+03
     -3.863  0.0000E+00  0.2560E+03
     -3.750  0.0000E+00  0.2560E+03
     -3.637  0.0000E+00  0.2560E+03
     -3.524  0.0000E+00  0.2560E+03
     -3.411  0.0000E+00  0.2560E+03
     -3.298  0.0000E+00  0.2560E+03
     -3.185  0.0000E+00  0.2560E+03
     -3.072  0.0000E+00  0.2560E+03
     -2.959  0.0000E+00  0.2560E+03
     -2.846  0.0000E+00  0.2560E+03
     -2.733  0.8700E-01  0.2560E+03
     -2.620  0.8760E+01  0.2570E+03
     -2.507  0.2277E+02  0.2596E+03
     -2.394  0.8518E+02  0.2692E+03
     -2.281  0.8142E+02  0.2784E+03
     -2.168  0.1552E+03  0.2960E+03
     -2.055  0.7340E+02  0.3043E+03
     -1.942  0.5611E+02  0.3106E+03
     -1.829  0.6087E+02  0.3175E+03
     -1.716  0.7322E+02  0.3257E+03
     -1.603  0.1903E-09  0.3258E+03
     -1.490  0.6679E+02  0.3333E+03
     -1.376  0.1997E+03  0.3559E+03
     -1.263  0.2555E+02  0.3588E+03
     -1.150  0.2511E+03  0.3871E+03
     -1.037  0.1385E+03  0.4028E+03
     -0.924  0.2572E+03  0.4319E+03
     -0.811  0.6390E+02  0.4391E+03
     -0.698  0.7215E+02  0.4473E+03
     -0.585  0.6630E+01  0.4480E+03
     -0.472  0.0000E+00  0.4480E+03
     -0.359  0.0000E+00  0.4480E+03
     -0.246  0.0000E+00  0.4480E+03
     -0.133  0.0000E+00  0.4480E+03
     -0.020  0.0000E+00  0.4480E+03
      0.093  0.0000E+00  0.4480E+03
      0.206  0.0000E+00  0.4480E+03
      0.319  0.0000E+00  0.4480E+03
      0.432  0.0000E+00  0.4480E+03
      0.545  0.0000E+00  0.4480E+03
      0.658  0.0000E+00  0.4480E+03
      0.771  0.0000E+00  0.4480E+03
      0.884  0.0000E+00  0.4480E+03
      0.997  0.0000E+00  0.4480E+03
      1.110  0.0000E+00  0.4480E+03
      1.223  0.0000E+00  0.4480E+03
      1.336  0.0000E+00  0.4480E+03
      1.449  0.0000E+00  0.4480E+03
      1.562  0.0000E+00  0.4480E+03
      1.675  0.0000E+00  0.4480E+03
      1.789  0.0000E+00  0.4480E+03
      1.902  0.0000E+00  0.4480E+03
      2.015  0.0000E+00  0.4480E+03
      2.128  0.0000E+00  0.4480E+03
      2.241  0.0000E+00  0.4480E+03
      2.354  0.0000E+00  0.4480E+03
      2.467  0.0000E+00  0.4480E+03
      2.580  0.0000E+00  0.4480E+03
      2.693  0.0000E+00  0.4480E+03
      2.806  0.0000E+00  0.4480E+03
      2.919  0.0000E+00  0.4480E+03
      3.032  0.0000E+00  0.4480E+03
      3.145  0.0000E+00  0.4480E+03
      3.258  0.0000E+00  0.4480E+03
      3.371  0.0000E+00  0.4480E+03
      3.484  0.0000E+00  0.4480E+03
      3.597  0.0000E+00  0.4480E+03
      3.710  0.0000E+00  0.4480E+03
      3.823  0.0000E+00  0.4480E+03
      3.936  0.0000E+00  0.4480E+03
      4.049  0.0000E+00  0.4480E+03
      4.162  0.0000E+00  0.4480E+03
      4.275  0.4940E-05  0.4480E+03
      4.388  0.2211E+01  0.4482E+03
      4.501  0.0000E+00  0.4482E+03
      4.614  0.0000E+00  0.4482E+03
      4.727  0.0000E+00  0.4482E+03
      4.841  0.0000E+00  0.4482E+03
      4.954  0.1243E-04  0.4483E+03
      5.067  0.1326E+02  0.4497E+03
      5.180  0.1252E-01  0.4498E+03
      5.293  0.0000E+00  0.4498E+03
      5.406  0.0000E+00  0.4498E+03
      5.519  0.2250E+01  0.4500E+03
      5.632  0.2429E+02  0.4527E+03
      5.745  0.1980E-06  0.4528E+03
      5.858  0.1691E+02  0.4547E+03
      5.971  0.7875E+00  0.4548E+03
      6.084  0.0000E+00  0.4548E+03
      6.197  0.0000E+00  0.4548E+03
      6.310  0.9301E-03  0.4548E+03
      6.423  0.1381E+02  0.4563E+03
      6.536  0.8301E+01  0.4572E+03
      6.649  0.3987E+02  0.4618E+03
      6.762  0.6618E+02  0.4692E+03
      6.875  0.5898E+02  0.4759E+03
      6.988  0.1253E+02  0.4773E+03
      7.101  0.1572E+01  0.4775E+03
      7.214  0.4662E+01  0.4780E+03
      7.327  0.2185E+01  0.4783E+03
      7.440  0.8131E+02  0.4875E+03
      7.553  0.1668E+03  0.5063E+03
      7.666  0.3850E+01  0.5068E+03
      7.779  0.2653E+02  0.5097E+03
      7.893  0.1461E+00  0.5098E+03
      8.006  0.5293E+02  0.5157E+03
      8.119  0.5223E-02  0.5158E+03
      8.232  0.1396E+02  0.5173E+03
      8.345  0.9217E+02  0.5277E+03
      8.458  0.1612E-01  0.5278E+03
      8.571  0.1454E+03  0.5442E+03
      8.684  0.1385E+02  0.5458E+03
      8.797  0.9592E-06  0.5458E+03
      8.910  0.7964E+02  0.5548E+03
      9.023  0.1249E+03  0.5689E+03
      9.136  0.5539E+01  0.5695E+03
      9.249  0.2191E+02  0.5720E+03
      9.362  0.2232E+02  0.5745E+03
      9.475  0.1154E+01  0.5746E+03
      9.588  0.1212E+02  0.5760E+03
      9.701  0.0000E+00  0.5760E+03
      9.814  0.0000E+00  0.5760E+03
      9.927  0.0000E+00  0.5760E+03
     10.040  0.0000E+00  0.5760E+03
     10.153  0.0000E+00  0.5760E+03
     10.266  0.0000E+00  0.5760E+03
     10.379  0.0000E+00  0.5760E+03
     10.492  0.0000E+00  0.5760E+03
     10.605  0.0000E+00  0.5760E+03
     10.718  0.0000E+00  0.5760E+03
     10.831  0.0000E+00  0.5760E+03
     10.945  0.0000E+00  0.5760E+03
     11.058  0.0000E+00  0.5760E+03
