       N       E                     dE             d eps       ncg     rms          rms(c)
DAV:   1     0.438676266852E+04    0.43868E+04   -0.17132E+05  3648   0.125E+03
DAV:   2     0.364325336460E+03   -0.40224E+04   -0.38238E+04  3872   0.366E+02
DAV:   3    -0.205084733665E+03   -0.56941E+03   -0.56498E+03  4160   0.155E+02
DAV:   4    -0.228136536508E+03   -0.23052E+02   -0.22936E+02  4160   0.334E+01
DAV:   5    -0.229007240729E+03   -0.87070E+00   -0.86937E+00  4512   0.631E+00    0.106E+01
DAV:   6    -0.224136357956E+03    0.48709E+01   -0.95231E+00  4256   0.534E+00    0.776E+00
DAV:   7    -0.223777175201E+03    0.35918E+00   -0.20535E+00  4704   0.233E+00    0.534E+00
DAV:   8    -0.223902435439E+03   -0.12526E+00   -0.26851E-01  4032   0.125E+00    0.143E+00
DAV:   9    -0.223896969099E+03    0.54663E-02   -0.11083E-02  4224   0.260E-01    0.623E-01
DAV:  10    -0.223901152041E+03   -0.41829E-02   -0.18236E-02  4096   0.237E-01    0.282E-01
DAV:  11    -0.223900462277E+03    0.68976E-03   -0.15707E-03  4576   0.856E-02    0.902E-02
DAV:  12    -0.223900425671E+03    0.36606E-04   -0.12708E-04  4448   0.231E-02    0.241E-02
DAV:  13    -0.223900419496E+03    0.61756E-05   -0.30890E-05  4224   0.984E-03    0.379E-03
DAV:  14    -0.223900421476E+03   -0.19801E-05   -0.31010E-06  4064   0.423E-03    0.718E-03
DAV:  15    -0.223900422526E+03   -0.10506E-05   -0.35155E-07  4608   0.195E-03    0.326E-03
DAV:  16    -0.223900422937E+03   -0.41101E-06   -0.13320E-07  4224   0.911E-04    0.107E-03
DAV:  17    -0.223900423008E+03   -0.70657E-07   -0.91872E-09  2848   0.755E-04    0.360E-04
DAV:  18    -0.223900423159E+03   -0.15090E-06   -0.19828E-08  3456   0.734E-04    0.558E-04
DAV:  19    -0.223900423136E+03    0.22570E-07   -0.96889E-09  2400   0.369E-04    0.428E-04
DAV:  20    -0.223900423082E+03    0.53900E-07   -0.28588E-09  2464   0.384E-04    0.244E-04
DAV:  21    -0.223900423034E+03    0.48480E-07   -0.32098E-09  2368   0.161E-04    0.107E-04
DAV:  22    -0.223900423037E+03   -0.27503E-08   -0.10800E-09  2304   0.140E-04
   1 F= -.22390042E+03 E0= -.22390042E+03  d E =-.986108E-15
