 vasp.6.3.2 27Jun22 (build Oct 14 2022 12:13:54) complex                        
  
 executed on             LinuxIFC date 2025.08.28  22:08:21
 running on   32 total cores
 distrk:  each k-point on   32 cores,    1 groups
 distr:  one band on NCORE=   1 cores,   32 groups


--------------------------------------------------------------------------------------------------------


 INCAR:
   ENCUT = 341.213600
   SIGMA = 0.020000
   EDIFF = 1.00e-08
   GGA = PS
   PREC = Accurate
   IALGO = 38
   IBRION = -1
   ISMEAR = 0
   NELMIN = 5
   ADDGRID = .TRUE.
   LCHARG = .FALSE.
   LWAVE = .FALSE.
   LREAL = .FALSE.

 POTCAR:    PAW_PBE Na_pv 19Sep2006               
 POTCAR:    PAW_PBE Cl 06Sep2000                  
 -----------------------------------------------------------------------------
|                                                                             |
|           W    W    AA    RRRRR   N    N  II  N    N   GGGG   !!!           |
|           W    W   A  A   R    R  NN   N  II  NN   N  G    G  !!!           |
|           W    W  A    A  R    R  N N  N  II  N N  N  G       !!!           |
|           W WW W  AAAAAA  RRRRR   N  N N  II  N  N N  G  GGG   !            |
|           WW  WW  A    A  R   R   N   NN  II  N   NN  G    G                |
|           W    W  A    A  R    R  N    N  II  N    N   GGGG   !!!           |
|                                                                             |
|     For optimal performance we recommend to set                             |
|       NCORE = 2 up to number-of-cores-per-socket                            |
|     NCORE specifies how many cores store one orbital (NPAR=cpu/NCORE).      |
|     This setting can greatly improve the performance of VASP for DFT.       |
|     The default, NCORE=1 might be grossly inefficient on modern             |
|     multi-core architectures or massively parallel machines. Do your        |
|     own testing! More info at https://www.vasp.at/wiki/index.php/NCORE      |
|     Unfortunately you need to use the default for GW and RPA                |
|     calculations (for HF NCORE is supported but not extensively tested      |
|     yet).                                                                   |
|                                                                             |
 -----------------------------------------------------------------------------

 POTCAR:    PAW_PBE Na_pv 19Sep2006               
   SHA256 =  6a2f546d9e11350984debacf3dc457d8cffc0868e817d445faca461816a32b94 Na_pv/POTCAR          
   COPYR  = (c) Copyright 19Sep2006 Georg Kresse                                                    
   COPYR  = This file is part of the software VASP. Any use, copying, and all other rights are regul
   COPYR  = If you do not have a valid VASP license, you may not use, copy or distribute this file. 
   VRHFIN =Na: p6s1                                                                                 
   LEXCH  = PE                                                                                      
   EATOM  =   766.0439 eV,   56.3026 Ry                                                             
                                                                                                    
   TITEL  = PAW_PBE Na_pv 19Sep2006                                                                 
   LULTRA =        F    use ultrasoft PP ?                                                          
   IUNSCR =        1    unscreen: 0-lin 1-nonlin 2-no                                               
   RPACOR =    1.800    partial core radius                                                         
   POMASS =   22.990; ZVAL   =    7.000    mass and valenz                                          
   RCORE  =    2.200    outmost cutoff radius                                                       
   RWIGS  =    2.200; RWIGS  =    1.164    wigner-seitz radius (au A)                               
   ENMAX  =  259.561; ENMIN  =  194.671 eV                                                          
   ICORE  =        2    local potential                                                             
   LCOR   =        T    correct aug charges                                                         
   LPAW   =        T    paw PP                                                                      
   EAUG   =  368.056                                                                                
   DEXC   =    0.000                                                                                
   RMAX   =    2.245    core radius for proj-oper                                                   
   RAUG   =    1.300    factor for augmentation sphere                                              
   RDEP   =    2.259    radius for radial grids                                                     
   RDEPT  =    1.738    core radius for aug-charge                                                  
                                                                                                    
   Atomic configuration                                                                             
    5 entries                                                                                       
     n  l   j            E        occ.                                                              
     1  0  0.50     -1033.6933   2.0000                                                             
     2  0  0.50       -56.7526   2.0000                                                             
     2  1  1.50       -28.6721   6.0000                                                             
     3  0  0.50        -2.7440   1.0000                                                             
     3  2  1.50        -1.3606   0.0000                                                             
   Description                                                                                      
     l       E           TYP  RCUT    TYP  RCUT                                                     
     1    -28.6720912     23  2.000                                                                 
     1      6.8029130     23  2.000                                                                 
     0     -2.7439560     23  2.200                                                                 
     0     34.0145650     23  2.200                                                                 
     2     -1.3605826     23  2.200                                                                 
  local pseudopotential read in
  partial core-charges read in
  partial kinetic energy density read in
  atomic valenz-charges read in
  non local Contribution for L=           1  read in
    real space projection operators read in
  non local Contribution for L=           1  read in
    real space projection operators read in
  non local Contribution for L=           0  read in
    real space projection operators read in
  non local Contribution for L=           0  read in
    real space projection operators read in
    PAW grid and wavefunctions read in
 
   number of l-projection  operators is LMAX  =           4
   number of lm-projection operators is LMMAX =           8
 
 POTCAR:    PAW_PBE Cl 06Sep2000                  
   SHA256 =  9f1b6e6ed4247ac726a768b330d26d7667cc3c95a39ff49c1d064c2d9dcce931 Cl/POTCAR             
   COPYR  = (c) Copyright 06Sep2000 Georg Kresse                                                    
   COPYR  = This file is part of the software VASP. Any use, copying, and all other rights are regul
   COPYR  = If you do not have a valid VASP license, you may not use, copy or distribute this file. 
   VRHFIN =Cl: s2p5                                                                                 
   LEXCH  = PE                                                                                      
   EATOM  =   409.7259 eV,   30.1140 Ry                                                             
                                                                                                    
   TITEL  = PAW_PBE Cl 06Sep2000                                                                    
   LULTRA =        F    use ultrasoft PP ?                                                          
   IUNSCR =        1    unscreen: 0-lin 1-nonlin 2-no                                               
   RPACOR =    1.500    partial core radius                                                         
   POMASS =   35.453; ZVAL   =    7.000    mass and valenz                                          
   RCORE  =    1.900    outmost cutoff radius                                                       
   RWIGS  =    2.100; RWIGS  =    1.111    wigner-seitz radius (au A)                               
   ENMAX  =  262.472; ENMIN  =  196.854 eV                                                          
   ICORE  =        2    local potential                                                             
   LCOR   =        T    correct aug charges                                                         
   LPAW   =        T    paw PP                                                                      
   EAUG   =  356.192                                                                                
   DEXC   =    0.000                                                                                
   RMAX   =    1.945    core radius for proj-oper                                                   
   RAUG   =    1.300    factor for augmentation sphere                                              
   RDEP   =    2.020    radius for radial grids                                                     
   RDEPT  =    1.678    core radius for aug-charge                                                  
                                                                                                    
   Atomic configuration                                                                             
    6 entries                                                                                       
     n  l   j            E        occ.                                                              
     1  0  0.50     -2751.1850   2.0000                                                             
     2  0  0.50      -252.6861   2.0000                                                             
     2  1  1.50      -191.6157   6.0000                                                             
     3  0  0.50       -20.6916   2.0000                                                             
     3  1  0.50        -8.5949   5.0000                                                             
     3  2  1.50        -8.1635   0.0000                                                             
   Description                                                                                      
     l       E           TYP  RCUT    TYP  RCUT                                                     
     0    -20.6915656     23  1.900                                                                 
     0    -22.0521482     23  1.900                                                                 
     1     -8.5948577     23  1.900                                                                 
     1     -5.3847331     23  1.900                                                                 
     2     -8.1634956     23  1.900                                                                 
  local pseudopotential read in
  partial core-charges read in
  partial kinetic energy density read in
  atomic valenz-charges read in
  non local Contribution for L=           0  read in
    real space projection operators read in
  non local Contribution for L=           0  read in
    real space projection operators read in
  non local Contribution for L=           1  read in
    real space projection operators read in
  non local Contribution for L=           1  read in
    real space projection operators read in
    PAW grid and wavefunctions read in
 
   number of l-projection  operators is LMAX  =           4
   number of lm-projection operators is LMMAX =           8
 
 -----------------------------------------------------------------------------
|                                                                             |
|               ----> ADVICE to this user running VASP <----                  |
|                                                                             |
|     You have a (more or less) 'large supercell' and for larger cells it     |
|     might be more efficient to use real-space projection operators.         |
|     Therefore, try LREAL= Auto in the INCAR file.                           |
|     Mind: For very accurate calculation, you might also keep the            |
|     reciprocal projection scheme (i.e. LREAL=.FALSE.).                      |
|                                                                             |
 -----------------------------------------------------------------------------

 -----------------------------------------------------------------------------
|                                                                             |
|               ----> ADVICE to this user running VASP <----                  |
|                                                                             |
|     You enforced a specific xc type in the INCAR file but a different       |
|     type was found in the POTCAR file.                                      |
|     I HOPE YOU KNOW WHAT YOU ARE DOING!                                     |
|                                                                             |
 -----------------------------------------------------------------------------

  PAW_PBE Na_pv 19Sep2006               :
 energy of atom  1       EATOM= -766.0439
 kinetic energy error for atom=    0.0189 (will be added to EATOM!!)
  PAW_PBE Cl 06Sep2000                  :
 energy of atom  2       EATOM= -409.7259
 kinetic energy error for atom=    0.0106 (will be added to EATOM!!)
 
 
 POSCAR: Na Cl
  positions in cartesian coordinates
  No initial velocities read in
 exchange correlation table for  LEXCH =       14
   RHO(1)=    0.500       N(1)  =     2000
   RHO(2)=  100.500       N(2)  =     4000
 


--------------------------------------------------------------------------------------------------------


 ion  position               nearest neighbor table
   1  0.000  0.000  0.000-
   2  0.250  0.250  0.000-
   3  0.250  0.000  0.250-
   4  0.000  0.250  0.250-
   5  0.000  0.000  0.500-
   6  0.250  0.250  0.500-
   7  0.250  0.000  0.750-
   8  0.000  0.250  0.750-
   9  0.000  0.500  0.000-
  10  0.250  0.750  0.000-
  11  0.250  0.500  0.250-
  12  0.000  0.750  0.250-
  13  0.000  0.500  0.500-
  14  0.250  0.750  0.500-
  15  0.250  0.500  0.750-
  16  0.000  0.750  0.750-
  17  0.500  0.000  0.000-
  18  0.750  0.250  0.000-
  19  0.750  0.000  0.250-
  20  0.500  0.250  0.250-
  21  0.500  0.000  0.500-
  22  0.750  0.250  0.500-
  23  0.750  0.000  0.750-
  24  0.500  0.250  0.750-
  25  0.500  0.500  0.000-
  26  0.750  0.750  0.000-
  27  0.750  0.500  0.250-
  28  0.500  0.750  0.250-
  29  0.500  0.500  0.500-
  30  0.750  0.750  0.500-
  31  0.750  0.500  0.750-
  32  0.500  0.750  0.750-
  33  0.253  0.253  0.250-
  34  0.000  0.000  0.250-
  35  0.000  0.250  0.000-
  36  0.250  0.000  0.000-
  37  0.250  0.250  0.750-
  38  0.000  0.000  0.750-
  39  0.000  0.250  0.500-
  40  0.250  0.000  0.500-
  41  0.250  0.750  0.250-
  42  0.000  0.500  0.250-
  43  0.000  0.750  0.000-
  44  0.250  0.500  0.000-
  45  0.250  0.750  0.750-
  46  0.000  0.500  0.750-
  47  0.000  0.750  0.500-
  48  0.250  0.500  0.500-
  49  0.750  0.250  0.250-
  50  0.500  0.000  0.250-
  51  0.500  0.250  0.000-
  52  0.750  0.000  0.000-
  53  0.750  0.250  0.750-
  54  0.500  0.000  0.750-
  55  0.500  0.250  0.500-
  56  0.750  0.000  0.500-
  57  0.750  0.750  0.250-
  58  0.500  0.500  0.250-
  59  0.500  0.750  0.000-
  60  0.750  0.500  0.000-
  61  0.750  0.750  0.750-
  62  0.500  0.500  0.750-
  63  0.500  0.750  0.500-
  64  0.750  0.500  0.500-
 
  LATTYP: Found a simple cubic cell.
 ALAT       =    11.2040023600
  
  Lattice vectors:
  
 A1 = (  11.2040023600,   0.0000000000,   0.0000000000)
 A2 = (   0.0000000000,  11.2040023600,   0.0000000000)
 A3 = (   0.0000000000,   0.0000000000,  11.2040023600)


Analysis of symmetry for initial positions (statically):
=====================================================================
 Subroutine PRICEL returns:
 Original cell was already a primitive cell.
 

 Routine SETGRP: Setting up the symmetry group for a 
 simple cubic supercell.


 Subroutine GETGRP returns: Found  4 space group operations
 (whereof  2 operations were pure point group operations)
 out of a pool of 48 trial point group operations.


The static configuration has the point symmetry C_1h.
 The point group associated with its full space group is C_2v.


Analysis of symmetry for dynamics (positions and initial velocities):
=====================================================================
 Subroutine PRICEL returns:
 Original cell was already a primitive cell.
 

 Routine SETGRP: Setting up the symmetry group for a 
 simple cubic supercell.


 Subroutine GETGRP returns: Found  4 space group operations
 (whereof  2 operations were pure point group operations)
 out of a pool of 48 trial point group operations.


The dynamic configuration has the point symmetry C_1h.
 The point group associated with its full space group is C_2v.


 Subroutine INISYM returns: Found  4 space group operations
 (whereof  2 operations are pure point group operations),
 and found     1 'primitive' translations


----------------------------------------------------------------------------------------

                                     Primitive cell                                     

  volume of cell :    1406.4347

  direct lattice vectors                    reciprocal lattice vectors
    11.204002360  0.000000000  0.000000000     0.089253819  0.000000000  0.000000000
     0.000000000 11.204002360  0.000000000     0.000000000  0.089253819  0.000000000
     0.000000000  0.000000000 11.204002360     0.000000000  0.000000000  0.089253819

  length of vectors
    11.204002360 11.204002360 11.204002360     0.089253819  0.089253819  0.089253819

  position of ions in fractional coordinates (direct lattice)
     0.000000000  0.000000000  0.000000000
     0.250000000  0.250000000  0.000000000
     0.250000000  0.000000000  0.250000000
     0.000000000  0.250000000  0.250000000
     0.000000000  0.000000000  0.500000000
     0.250000000  0.250000000  0.500000000
     0.250000000  0.000000000  0.750000000
     0.000000000  0.250000000  0.750000000
     0.000000000  0.500000000  0.000000000
     0.250000000  0.750000000  0.000000000
     0.250000000  0.500000000  0.250000000
     0.000000000  0.750000000  0.250000000
     0.000000000  0.500000000  0.500000000
     0.250000000  0.750000000  0.500000000
     0.250000000  0.500000000  0.750000000
     0.000000000  0.750000000  0.750000000
     0.500000000  0.000000000  0.000000000
     0.750000000  0.250000000  0.000000000
     0.750000000  0.000000000  0.250000000
     0.500000000  0.250000000  0.250000000
     0.500000000  0.000000000  0.500000000
     0.750000000  0.250000000  0.500000000
     0.750000000  0.000000000  0.750000000
     0.500000000  0.250000000  0.750000000
     0.500000000  0.500000000  0.000000000
     0.750000000  0.750000000  0.000000000
     0.750000000  0.500000000  0.250000000
     0.500000000  0.750000000  0.250000000
     0.500000000  0.500000000  0.500000000
     0.750000000  0.750000000  0.500000000
     0.750000000  0.500000000  0.750000000
     0.500000000  0.750000000  0.750000000
     0.252677615  0.252677615  0.250000000
     0.000000000  0.000000000  0.250000000
     0.000000000  0.250000000  0.000000000
     0.250000000  0.000000000  0.000000000
     0.250000000  0.250000000  0.750000000
     0.000000000  0.000000000  0.750000000
     0.000000000  0.250000000  0.500000000
     0.250000000  0.000000000  0.500000000
     0.250000000  0.750000000  0.250000000
     0.000000000  0.500000000  0.250000000
     0.000000000  0.750000000  0.000000000
     0.250000000  0.500000000  0.000000000
     0.250000000  0.750000000  0.750000000
     0.000000000  0.500000000  0.750000000
     0.000000000  0.750000000  0.500000000
     0.250000000  0.500000000  0.500000000
     0.750000000  0.250000000  0.250000000
     0.500000000  0.000000000  0.250000000
     0.500000000  0.250000000  0.000000000
     0.750000000  0.000000000  0.000000000
     0.750000000  0.250000000  0.750000000
     0.500000000  0.000000000  0.750000000
     0.500000000  0.250000000  0.500000000
     0.750000000  0.000000000  0.500000000
     0.750000000  0.750000000  0.250000000
     0.500000000  0.500000000  0.250000000
     0.500000000  0.750000000  0.000000000
     0.750000000  0.500000000  0.000000000
     0.750000000  0.750000000  0.750000000
     0.500000000  0.500000000  0.750000000
     0.500000000  0.750000000  0.500000000
     0.750000000  0.500000000  0.500000000

  ion indices of the primitive-cell ions
   primitive index   ion index
                 1           1
                 2           2
                 3           3
                 4           4
                 5           5
                 6           6
                 7           7
                 8           8
                 9           9
                10          10
                11          11
                12          12
                13          13
                14          14
                15          15
                16          16
                17          17
                18          18
                19          19
                20          20
                21          21
                22          22
                23          23
                24          24
                25          25
                26          26
                27          27
                28          28
                29          29
                30          30
                31          31
                32          32
                33          33
                34          34
                35          35
                36          36
                37          37
                38          38
                39          39
                40          40
                41          41
                42          42
                43          43
                44          44
                45          45
                46          46
                47          47
                48          48
                49          49
                50          50
                51          51
                52          52
                53          53
                54          54
                55          55
                56          56
                57          57
                58          58
                59          59
                60          60
                61          61
                62          62
                63          63
                64          64

----------------------------------------------------------------------------------------

 
 
 KPOINTS: KPOINTS created by Atomic Simulation Env

Automatic generation of k-mesh.
 Grid dimensions read from file:
 generate k-points for:    2    2    2

 Generating k-lattice:

  Cartesian coordinates                     Fractional coordinates (reciprocal lattice)
     0.044626910  0.000000000  0.000000000     0.500000000  0.000000000  0.000000000
     0.000000000  0.044626910  0.000000000     0.000000000  0.500000000  0.000000000
     0.000000000  0.000000000  0.044626910     0.000000000  0.000000000  0.500000000

  Length of vectors
     0.044626910  0.044626910  0.044626910

  Shift w.r.t. Gamma in fractional coordinates (k-lattice)
     0.000000000  0.000000000  0.000000000

 
 Subroutine IBZKPT returns following result:
 ===========================================
 
 Found      6 irreducible k-points:
 
 Following reciprocal coordinates:
            Coordinates               Weight
  0.000000  0.000000  0.000000      1.000000
  0.500000  0.000000  0.000000      2.000000
  0.000000  0.000000  0.500000      1.000000
  0.500000  0.500000  0.000000      1.000000
  0.000000  0.500000  0.500000      2.000000
  0.500000  0.500000  0.500000      1.000000
 
 Following cartesian coordinates:
            Coordinates               Weight
  0.000000  0.000000  0.000000      1.000000
  0.044627  0.000000  0.000000      2.000000
  0.000000  0.000000  0.044627      1.000000
  0.044627  0.044627  0.000000      1.000000
  0.000000  0.044627  0.044627      2.000000
  0.044627  0.044627  0.044627      1.000000
 


--------------------------------------------------------------------------------------------------------




 Dimension of arrays:
   k-points           NKPTS =      6   k-points in BZ     NKDIM =      6   number of bands    NBANDS=    288
   number of dos      NEDOS =    301   number of ions     NIONS =     64
   non local maximal  LDIM  =      4   non local SUM 2l+1 LMDIM =      8
   total plane-waves  NPLWV = 343000
   max r-space proj   IRMAX =      1   max aug-charges    IRDMAX=  56280
   dimension x,y,z NGX =    70 NGY =   70 NGZ =   70
   dimension x,y,z NGXF=   140 NGYF=  140 NGZF=  140
   support grid    NGXF=   280 NGYF=  280 NGZF=  280
   ions per type =              32  32
   NGX,Y,Z   is equivalent  to a cutoff of  10.39, 10.39, 10.39 a.u.
   NGXF,Y,Z  is equivalent  to a cutoff of  20.77, 20.77, 20.77 a.u.

 SYSTEM =  unknown system                          
 POSCAR =  Na Cl                                   

 Startparameter for this run:
   NWRITE =      2    write-flag & timer
   PREC   = accura    normal or accurate (medium, high low for compatibility)
   ISTART =      0    job   : 0-new  1-cont  2-samecut
   ICHARG =      2    charge: 1-file 2-atom 10-const
   ISPIN  =      1    spin polarized calculation?
   LNONCOLLINEAR =      F non collinear calculations
   LSORBIT =      F    spin-orbit coupling
   INIWAV =      1    electr: 0-lowe 1-rand  2-diag
   LASPH  =      F    aspherical Exc in radial PAW
 Electronic Relaxation 1
   ENCUT  =  341.2 eV  25.08 Ry    5.01 a.u.  16.87 16.87 16.87*2*pi/ulx,y,z
   ENINI  =  341.2     initial cutoff
   ENAUG  =  368.1 eV  augmentation charge cutoff
   NELM   =     60;   NELMIN=  5; NELMDL= -5     # of ELM steps 
   EDIFF  = 0.1E-07   stopping-criterion for ELM
   LREAL  =      F    real-space projection
   NLSPLINE    = F    spline interpolate recip. space projectors
   LCOMPAT=      F    compatible to vasp.4.4
   GGA_COMPAT  = T    GGA compatible to vasp.4.4-vasp.4.6
   LMAXPAW     = -100 max onsite density
   LMAXMIX     =    2 max onsite mixed and CHGCAR
   VOSKOWN=      0    Vosko Wilk Nusair interpolation
   ROPT   =    0.00000   0.00000
 Ionic relaxation
   EDIFFG = 0.1E-06   stopping-criterion for IOM
   NSW    =      0    number of steps for IOM
   NBLOCK =      1;   KBLOCK =      1    inner block; outer block 
   IBRION =     -1    ionic relax: 0-MD 1-quasi-New 2-CG
   NFREE  =      0    steps in history (QN), initial steepest desc. (CG)
   ISIF   =      2    stress and relaxation
   IWAVPR =     10    prediction:  0-non 1-charg 2-wave 3-comb
   ISYM   =      2    0-nonsym 1-usesym 2-fastsym
   LCORR  =      T    Harris-Foulkes like correction to forces

   POTIM  = 0.5000    time-step for ionic-motion
   TEIN   =    0.0    initial temperature
   TEBEG  =    0.0;   TEEND  =   0.0 temperature during run
   SMASS  =  -3.00    Nose mass-parameter (am)
   estimated Nose-frequenzy (Omega)   =  0.10E-29 period in steps = 0.13E+47 mass=  -0.287E-26a.u.
   SCALEE = 1.0000    scale energy and forces
   NPACO  =    256;   APACO  = 10.0  distance and # of slots for P.C.
   PSTRESS=    0.0 pullay stress

  Mass of Ions in am
   POMASS =  22.99 35.45
  Ionic Valenz
   ZVAL   =   7.00  7.00
  Atomic Wigner-Seitz radii
   RWIGS  =  -1.00 -1.00
  virtual crystal weights 
   VCA    =   1.00  1.00
   NELECT =     448.0000    total number of electrons
   NUPDOWN=      -1.0000    fix difference up-down

 DOS related values:
   EMIN   =  10.00;   EMAX   =-10.00  energy-range for DOS
   EFERMI =   0.00
   ISMEAR =     0;   SIGMA  =   0.02  broadening in eV -4-tet -1-fermi 0-gaus

 Electronic relaxation 2 (details)
   IALGO  =     38    algorithm
   LDIAG  =      T    sub-space diagonalisation (order eigenvalues)
   LSUBROT=      F    optimize rotation matrix (better conditioning)
   TURBO    =      0    0=normal 1=particle mesh
   IRESTART =      0    0=no restart 2=restart with 2 vectors
   NREBOOT  =      0    no. of reboots
   NMIN     =      0    reboot dimension
   EREF     =   0.00    reference energy to select bands
   IMIX   =      4    mixing-type and parameters
     AMIX     =   0.40;   BMIX     =  1.00
     AMIX_MAG =   1.60;   BMIX_MAG =  1.00
     AMIN     =   0.10
     WC   =   100.;   INIMIX=   1;  MIXPRE=   1;  MAXMIX= -45

 Intra band minimization:
   WEIMIN = 0.0000     energy-eigenvalue tresh-hold
   EBREAK =  0.87E-11  absolut break condition
   DEPER  =   0.30     relativ break condition  

   TIME   =   0.40     timestep for ELM

  volume/ion in A,a.u.               =      21.98       148.30
  Fermi-wavevector in a.u.,A,eV,Ry     =   1.118049  2.112807 17.007750  1.250034
  Thomas-Fermi vector in A             =   2.254677
 
 Write flags
   LWAVE        =      F    write WAVECAR
   LDOWNSAMPLE  =      F    k-point downsampling of WAVECAR
   LCHARG       =      F    write CHGCAR
   LVTOT        =      F    write LOCPOT, total local potential
   LVHAR        =      F    write LOCPOT, Hartree potential only
   LELF         =      F    write electronic localiz. function (ELF)
   LORBIT       =      0    0 simple, 1 ext, 2 COOP (PROOUT), +10 PAW based schemes


 Dipole corrections
   LMONO  =      F    monopole corrections only (constant potential shift)
   LDIPOL =      F    correct potential (dipole corrections)
   IDIPOL =      0    1-x, 2-y, 3-z, 4-all directions 
   EPSILON=  1.0000000 bulk dielectric constant

 Exchange correlation treatment:
   GGA     =    PS    GGA type
   LEXCH   =    14    internal setting for exchange type
   LIBXC   =     F    Libxc                    
   VOSKOWN =     0    Vosko Wilk Nusair interpolation
   LHFCALC =     F    Hartree Fock is set to
   LHFONE  =     F    Hartree Fock one center treatment
   AEXX    =    0.0000 exact exchange contribution

 Linear response parameters
   LEPSILON=     F    determine dielectric tensor
   LRPA    =     F    only Hartree local field effects (RPA)
   LNABLA  =     F    use nabla operator in PAW spheres
   LVEL    =     F    velocity operator in full k-point grid
   CSHIFT  =0.1000    complex shift for real part using Kramers Kronig
   OMEGAMAX=  -1.0    maximum frequency
   DEG_THRESHOLD= 0.2000000E-02 threshold for treating states as degnerate
   RTIME   =   -0.100 relaxation time in fs
  (WPLASMAI=    0.000 imaginary part of plasma frequency in eV, 0.658/RTIME)
   DFIELD  = 0.0000000 0.0000000 0.0000000 field for delta impulse in time
 
  Optional k-point grid parameters
   LKPOINTS_OPT  =     F    use optional k-point grid
   KPOINTS_OPT_MODE=     1    mode for optional k-point grid
 
 Orbital magnetization related:
   ORBITALMAG=     F  switch on orbital magnetization
   LCHIMAG   =     F  perturbation theory with respect to B field
   DQ        =  0.001000  dq finite difference perturbation B field
   LLRAUG    =     F  two centre corrections for induced B field



--------------------------------------------------------------------------------------------------------


 Static calculation
 charge density and potential will be updated during run
 non-spin polarized calculation
 Variant of blocked Davidson
 Davidson routine will perform the subspace rotation
 perform sub-space diagonalisation
    after iterative eigenvector-optimisation
 modified Broyden-mixing scheme, WC =      100.0
 initial mixing is a Kerker type mixing with AMIX =  0.4000 and BMIX =      1.0000
 Hartree-type preconditioning will be used
 using additional bands           64
 reciprocal scheme for non local part
 use partial core corrections
 calculate Harris-corrections to forces 
   (improved forces if not selfconsistent)
 use gradient corrections 
 use of overlap-Matrix (Vanderbilt PP)
 Gauss-broadening in eV      SIGMA  =   0.02


--------------------------------------------------------------------------------------------------------


  energy-cutoff  :      341.21
  volume of cell :     1406.43
      direct lattice vectors                 reciprocal lattice vectors
    11.204002360  0.000000000  0.000000000     0.089253819  0.000000000  0.000000000
     0.000000000 11.204002360  0.000000000     0.000000000  0.089253819  0.000000000
     0.000000000  0.000000000 11.204002360     0.000000000  0.000000000  0.089253819

  length of vectors
    11.204002360 11.204002360 11.204002360     0.089253819  0.089253819  0.089253819


 
 k-points in units of 2pi/SCALE and weight: KPOINTS created by Atomic Simulation Env
   0.00000000  0.00000000  0.00000000       0.125
   0.04462691  0.00000000  0.00000000       0.250
   0.00000000  0.00000000  0.04462691       0.125
   0.04462691  0.04462691  0.00000000       0.125
   0.00000000  0.04462691  0.04462691       0.250
   0.04462691  0.04462691  0.04462691       0.125
 
 k-points in reciprocal lattice and weights: KPOINTS created by Atomic Simulation Env
   0.00000000  0.00000000  0.00000000       0.125
   0.50000000  0.00000000  0.00000000       0.250
   0.00000000  0.00000000  0.50000000       0.125
   0.50000000  0.50000000  0.00000000       0.125
   0.00000000  0.50000000  0.50000000       0.250
   0.50000000  0.50000000  0.50000000       0.125
 
 position of ions in fractional coordinates (direct lattice) 
   0.00000000  0.00000000  0.00000000
   0.25000000  0.25000000  0.00000000
   0.25000000  0.00000000  0.25000000
   0.00000000  0.25000000  0.25000000
   0.00000000  0.00000000  0.50000000
   0.25000000  0.25000000  0.50000000
   0.25000000  0.00000000  0.75000000
   0.00000000  0.25000000  0.75000000
   0.00000000  0.50000000  0.00000000
   0.25000000  0.75000000  0.00000000
   0.25000000  0.50000000  0.25000000
   0.00000000  0.75000000  0.25000000
   0.00000000  0.50000000  0.50000000
   0.25000000  0.75000000  0.50000000
   0.25000000  0.50000000  0.75000000
   0.00000000  0.75000000  0.75000000
   0.50000000  0.00000000  0.00000000
   0.75000000  0.25000000  0.00000000
   0.75000000  0.00000000  0.25000000
   0.50000000  0.25000000  0.25000000
   0.50000000  0.00000000  0.50000000
   0.75000000  0.25000000  0.50000000
   0.75000000  0.00000000  0.75000000
   0.50000000  0.25000000  0.75000000
   0.50000000  0.50000000  0.00000000
   0.75000000  0.75000000  0.00000000
   0.75000000  0.50000000  0.25000000
   0.50000000  0.75000000  0.25000000
   0.50000000  0.50000000  0.50000000
   0.75000000  0.75000000  0.50000000
   0.75000000  0.50000000  0.75000000
   0.50000000  0.75000000  0.75000000
   0.25267761  0.25267761  0.25000000
   0.00000000  0.00000000  0.25000000
   0.00000000  0.25000000  0.00000000
   0.25000000  0.00000000  0.00000000
   0.25000000  0.25000000  0.75000000
   0.00000000  0.00000000  0.75000000
   0.00000000  0.25000000  0.50000000
   0.25000000  0.00000000  0.50000000
   0.25000000  0.75000000  0.25000000
   0.00000000  0.50000000  0.25000000
   0.00000000  0.75000000  0.00000000
   0.25000000  0.50000000  0.00000000
   0.25000000  0.75000000  0.75000000
   0.00000000  0.50000000  0.75000000
   0.00000000  0.75000000  0.50000000
   0.25000000  0.50000000  0.50000000
   0.75000000  0.25000000  0.25000000
   0.50000000  0.00000000  0.25000000
   0.50000000  0.25000000  0.00000000
   0.75000000  0.00000000  0.00000000
   0.75000000  0.25000000  0.75000000
   0.50000000  0.00000000  0.75000000
   0.50000000  0.25000000  0.50000000
   0.75000000  0.00000000  0.50000000
   0.75000000  0.75000000  0.25000000
   0.50000000  0.50000000  0.25000000
   0.50000000  0.75000000  0.00000000
   0.75000000  0.50000000  0.00000000
   0.75000000  0.75000000  0.75000000
   0.50000000  0.50000000  0.75000000
   0.50000000  0.75000000  0.50000000
   0.75000000  0.50000000  0.50000000
 
 position of ions in cartesian coordinates  (Angst):
   0.00000000  0.00000000  0.00000000
   2.80100059  2.80100059  0.00000000
   2.80100059  0.00000000  2.80100059
   0.00000000  2.80100059  2.80100059
   0.00000000  0.00000000  5.60200118
   2.80100059  2.80100059  5.60200118
   2.80100059  0.00000000  8.40300177
   0.00000000  2.80100059  8.40300177
   0.00000000  5.60200118  0.00000000
   2.80100059  8.40300177  0.00000000
   2.80100059  5.60200118  2.80100059
   0.00000000  8.40300177  2.80100059
   0.00000000  5.60200118  5.60200118
   2.80100059  8.40300177  5.60200118
   2.80100059  5.60200118  8.40300177
   0.00000000  8.40300177  8.40300177
   5.60200118  0.00000000  0.00000000
   8.40300177  2.80100059  0.00000000
   8.40300177  0.00000000  2.80100059
   5.60200118  2.80100059  2.80100059
   5.60200118  0.00000000  5.60200118
   8.40300177  2.80100059  5.60200118
   8.40300177  0.00000000  8.40300177
   5.60200118  2.80100059  8.40300177
   5.60200118  5.60200118  0.00000000
   8.40300177  8.40300177  0.00000000
   8.40300177  5.60200118  2.80100059
   5.60200118  8.40300177  2.80100059
   5.60200118  5.60200118  5.60200118
   8.40300177  8.40300177  5.60200118
   8.40300177  5.60200118  8.40300177
   5.60200118  8.40300177  8.40300177
   2.83100059  2.83100059  2.80100059
   0.00000000  0.00000000  2.80100059
   0.00000000  2.80100059  0.00000000
   2.80100059  0.00000000  0.00000000
   2.80100059  2.80100059  8.40300177
   0.00000000  0.00000000  8.40300177
   0.00000000  2.80100059  5.60200118
   2.80100059  0.00000000  5.60200118
   2.80100059  8.40300177  2.80100059
   0.00000000  5.60200118  2.80100059
   0.00000000  8.40300177  0.00000000
   2.80100059  5.60200118  0.00000000
   2.80100059  8.40300177  8.40300177
   0.00000000  5.60200118  8.40300177
   0.00000000  8.40300177  5.60200118
   2.80100059  5.60200118  5.60200118
   8.40300177  2.80100059  2.80100059
   5.60200118  0.00000000  2.80100059
   5.60200118  2.80100059  0.00000000
   8.40300177  0.00000000  0.00000000
   8.40300177  2.80100059  8.40300177
   5.60200118  0.00000000  8.40300177
   5.60200118  2.80100059  5.60200118
   8.40300177  0.00000000  5.60200118
   8.40300177  8.40300177  2.80100059
   5.60200118  5.60200118  2.80100059
   5.60200118  8.40300177  0.00000000
   8.40300177  5.60200118  0.00000000
   8.40300177  8.40300177  8.40300177
   5.60200118  5.60200118  8.40300177
   5.60200118  8.40300177  5.60200118
   8.40300177  5.60200118  5.60200118
 


--------------------------------------------------------------------------------------------------------


 k-point   1 :   0.0000 0.0000 0.0000  plane waves:   20005
 k-point   2 :   0.5000 0.0000 0.0000  plane waves:   20138
 k-point   3 :   0.0000 0.0000 0.5000  plane waves:   20138
 k-point   4 :   0.5000 0.5000 0.0000  plane waves:   20160
 k-point   5 :   0.0000 0.5000 0.5000  plane waves:   20160
 k-point   6 :   0.5000 0.5000 0.5000  plane waves:   20336

 maximum and minimum number of plane-waves per node :     20336    20005

 maximum number of plane-waves:     20336
 maximum index in each direction: 
   IXMAX=   16   IYMAX=   16   IZMAX=   16
   IXMIN=  -17   IYMIN=  -17   IZMIN=  -17


 serial   3D FFT for wavefunctions
 parallel 3D FFT for charge:
    minimum data exchange during FFTs selected (reduces bandwidth)


 total amount of memory used by VASP MPI-rank0   118439. kBytes
=======================================================================

   base      :      30000. kBytes
   nonl-proj :      36470. kBytes
   fftplans  :      14405. kBytes
   grid      :      19342. kBytes
   one-center:        196. kBytes
   wavefun   :      18026. kBytes
 
     INWAV:  cpu time      0.0000: real time      0.0000
 Broyden mixing: mesh for mixing (old mesh)
   NGX = 33   NGY = 33   NGZ = 33
  (NGX  =140   NGY  =140   NGZ  =140)
  gives a total of  35937 points

 initial charge density was supplied:
 charge density of overlapping atoms calculated
 number of electron     448.0000000 magnetization 
 keeping initial charge density in first step


--------------------------------------------------------------------------------------------------------


 Maximum index for augmentation-charges         1834 (set IRDMAX)


--------------------------------------------------------------------------------------------------------


 First call to EWALD:  gamma=   0.158
 Maximum number of real-space cells 3x 3x 3
 Maximum number of reciprocal cells 3x 3x 3

    FEWALD:  cpu time      0.0014: real time      0.0014


--------------------------------------- Iteration      1(   1)  ---------------------------------------


    POTLOK:  cpu time      0.0415: real time      0.0421
    SETDIJ:  cpu time      0.0319: real time      0.0321
     EDDAV:  cpu time      7.3940: real time      7.4359
       DOS:  cpu time      0.0013: real time      0.0013
    --------------------------------------------
      LOOP:  cpu time      7.4687: real time      7.5114

 eigenvalue-minimisations  :  3648
 total energy-change (2. order) : 0.4386763E+04  (-0.1713208E+05)
 number of electron     448.0000000 magnetization 
 augmentation part      448.0000000 magnetization 

 Free energy of the ion-electron system (eV)
  ---------------------------------------------------
  alpha Z        PSCENC =       751.52672365
  Ewald energy   TEWEN  =    -22871.34026991
  -Hartree energ DENC   =     -8992.24807945
  -exchange      EXHF   =         0.00000000
  -V(xc)+E(xc)   XCENC  =      1456.53429222
  PAW double counting   =     26466.43774078   -29286.08056155
  entropy T*S    EENTRO =        -0.00019274
  eigenvalues    EBANDS =      -670.24645440
  atomic energy  EATOM  =     37532.17946992
  Solvation  Ediel_sol  =         0.00000000
  ---------------------------------------------------
  free energy    TOTEN  =      4386.76266852 eV

  energy without entropy =     4386.76286126  energy(sigma->0) =     4386.76276489


--------------------------------------------------------------------------------------------------------




--------------------------------------- Iteration      1(   2)  ---------------------------------------


     EDDAV:  cpu time      7.7733: real time      7.8177
       DOS:  cpu time      0.0006: real time      0.0006
    --------------------------------------------
      LOOP:  cpu time      7.7739: real time      7.8183

 eigenvalue-minimisations  :  3872
 total energy-change (2. order) :-0.4022437E+04  (-0.3823790E+04)
 number of electron     448.0000000 magnetization 
 augmentation part      448.0000000 magnetization 

 Free energy of the ion-electron system (eV)
  ---------------------------------------------------
  alpha Z        PSCENC =       751.52672365
  Ewald energy   TEWEN  =    -22871.34026991
  -Hartree energ DENC   =     -8992.24807945
  -exchange      EXHF   =         0.00000000
  -V(xc)+E(xc)   XCENC  =      1456.53429222
  PAW double counting   =     26466.43774078   -29286.08056155
  entropy T*S    EENTRO =        -0.00000000
  eigenvalues    EBANDS =     -4692.68397920
  atomic energy  EATOM  =     37532.17946992
  Solvation  Ediel_sol  =         0.00000000
  ---------------------------------------------------
  free energy    TOTEN  =       364.32533646 eV

  energy without entropy =      364.32533646  energy(sigma->0) =      364.32533646


--------------------------------------------------------------------------------------------------------




--------------------------------------- Iteration      1(   3)  ---------------------------------------


     EDDAV:  cpu time      8.2495: real time      8.2993
       DOS:  cpu time      0.0006: real time      0.0006
    --------------------------------------------
      LOOP:  cpu time      8.2500: real time      8.2999

 eigenvalue-minimisations  :  4160
 total energy-change (2. order) :-0.5694101E+03  (-0.5649794E+03)
 number of electron     448.0000000 magnetization 
 augmentation part      448.0000000 magnetization 

 Free energy of the ion-electron system (eV)
  ---------------------------------------------------
  alpha Z        PSCENC =       751.52672365
  Ewald energy   TEWEN  =    -22871.34026991
  -Hartree energ DENC   =     -8992.24807945
  -exchange      EXHF   =         0.00000000
  -V(xc)+E(xc)   XCENC  =      1456.53429222
  PAW double counting   =     26466.43774078   -29286.08056155
  entropy T*S    EENTRO =        -0.00000000
  eigenvalues    EBANDS =     -5262.09404933
  atomic energy  EATOM  =     37532.17946992
  Solvation  Ediel_sol  =         0.00000000
  ---------------------------------------------------
  free energy    TOTEN  =      -205.08473366 eV

  energy without entropy =     -205.08473366  energy(sigma->0) =     -205.08473366


--------------------------------------------------------------------------------------------------------




--------------------------------------- Iteration      1(   4)  ---------------------------------------


     EDDAV:  cpu time      8.2611: real time      8.3079
       DOS:  cpu time      0.0005: real time      0.0005
    --------------------------------------------
      LOOP:  cpu time      8.2616: real time      8.3084

 eigenvalue-minimisations  :  4160
 total energy-change (2. order) :-0.2305180E+02  (-0.2293645E+02)
 number of electron     448.0000000 magnetization 
 augmentation part      448.0000000 magnetization 

 Free energy of the ion-electron system (eV)
  ---------------------------------------------------
  alpha Z        PSCENC =       751.52672365
  Ewald energy   TEWEN  =    -22871.34026991
  -Hartree energ DENC   =     -8992.24807945
  -exchange      EXHF   =         0.00000000
  -V(xc)+E(xc)   XCENC  =      1456.53429222
  PAW double counting   =     26466.43774078   -29286.08056155
  entropy T*S    EENTRO =        -0.00000000
  eigenvalues    EBANDS =     -5285.14585217
  atomic energy  EATOM  =     37532.17946992
  Solvation  Ediel_sol  =         0.00000000
  ---------------------------------------------------
  free energy    TOTEN  =      -228.13653651 eV

  energy without entropy =     -228.13653651  energy(sigma->0) =     -228.13653651


--------------------------------------------------------------------------------------------------------




--------------------------------------- Iteration      1(   5)  ---------------------------------------


     EDDAV:  cpu time      8.8109: real time      8.8607
       DOS:  cpu time      0.0006: real time      0.0006
    CHARGE:  cpu time      0.2683: real time      0.2699
    MIXING:  cpu time      0.0011: real time      0.0011
    --------------------------------------------
      LOOP:  cpu time      9.0809: real time      9.1323

 eigenvalue-minimisations  :  4512
 total energy-change (2. order) :-0.8707042E+00  (-0.8693723E+00)
 number of electron     448.0000022 magnetization 
 augmentation part      111.6392994 magnetization 

 Broyden mixing:
  rms(total) = 0.10605E+01    rms(broyden)= 0.10600E+01
  rms(prec ) = 0.14939E+01
  weight for this iteration     100.00

 Free energy of the ion-electron system (eV)
  ---------------------------------------------------
  alpha Z        PSCENC =       751.52672365
  Ewald energy   TEWEN  =    -22871.34026991
  -Hartree energ DENC   =     -8992.24807945
  -exchange      EXHF   =         0.00000000
  -V(xc)+E(xc)   XCENC  =      1456.53429222
  PAW double counting   =     26466.43774078   -29286.08056155
  entropy T*S    EENTRO =        -0.00000000
  eigenvalues    EBANDS =     -5286.01655639
  atomic energy  EATOM  =     37532.17946992
  Solvation  Ediel_sol  =         0.00000000
  ---------------------------------------------------
  free energy    TOTEN  =      -229.00724073 eV

  energy without entropy =     -229.00724073  energy(sigma->0) =     -229.00724073


--------------------------------------------------------------------------------------------------------




--------------------------------------- Iteration      1(   6)  ---------------------------------------


    POTLOK:  cpu time      0.0370: real time      0.0378
    SETDIJ:  cpu time      0.0301: real time      0.0302
     EDDAV:  cpu time      8.3971: real time      8.4450
       DOS:  cpu time      0.0004: real time      0.0004
    CHARGE:  cpu time      0.2683: real time      0.2697
    MIXING:  cpu time      0.0013: real time      0.0013
    --------------------------------------------
      LOOP:  cpu time      8.7342: real time      8.7844

 eigenvalue-minimisations  :  4256
 total energy-change (2. order) : 0.4870883E+01  (-0.9523112E+00)
 number of electron     448.0000022 magnetization 
 augmentation part      112.4592962 magnetization 

 Broyden mixing:
  rms(total) = 0.77608E+00    rms(broyden)= 0.77602E+00
  rms(prec ) = 0.89200E+00
  weight for this iteration     100.00

 eigenvalues of (default mixing * dielectric matrix)
  average eigenvalue GAMMA=   1.0704
  1.0704

 Free energy of the ion-electron system (eV)
  ---------------------------------------------------
  alpha Z        PSCENC =       751.52672365
  Ewald energy   TEWEN  =    -22871.34026991
  -Hartree energ DENC   =     -9061.76438666
  -exchange      EXHF   =         0.00000000
  -V(xc)+E(xc)   XCENC  =      1465.42989800
  PAW double counting   =     27289.26601674   -30101.16473192
  entropy T*S    EENTRO =        -0.00000000
  eigenvalues    EBANDS =     -5228.26907778
  atomic energy  EATOM  =     37532.17946992
  Solvation  Ediel_sol  =         0.00000000
  ---------------------------------------------------
  free energy    TOTEN  =      -224.13635796 eV

  energy without entropy =     -224.13635796  energy(sigma->0) =     -224.13635796


--------------------------------------------------------------------------------------------------------




--------------------------------------- Iteration      1(   7)  ---------------------------------------


    POTLOK:  cpu time      0.0357: real time      0.0360
    SETDIJ:  cpu time      0.0302: real time      0.0303
     EDDAV:  cpu time      9.1661: real time      9.2185
       DOS:  cpu time      0.0005: real time      0.0005
    CHARGE:  cpu time      0.2714: real time      0.2730
    MIXING:  cpu time      0.0015: real time      0.0015
    --------------------------------------------
      LOOP:  cpu time      9.5054: real time      9.5598

 eigenvalue-minimisations  :  4704
 total energy-change (2. order) : 0.3591828E+00  (-0.2053532E+00)
 number of electron     448.0000022 magnetization 
 augmentation part      112.8271400 magnetization 

 Broyden mixing:
  rms(total) = 0.53447E+00    rms(broyden)= 0.53445E+00
  rms(prec ) = 0.56453E+00
  weight for this iteration     100.00

 eigenvalues of (default mixing * dielectric matrix)
  average eigenvalue GAMMA=   2.1572
  1.4374  2.8769

 Free energy of the ion-electron system (eV)
  ---------------------------------------------------
  alpha Z        PSCENC =       751.52672365
  Ewald energy   TEWEN  =    -22871.34026991
  -Hartree energ DENC   =     -9085.76522939
  -exchange      EXHF   =         0.00000000
  -V(xc)+E(xc)   XCENC  =      1470.11415752
  PAW double counting   =     28325.46583870   -31138.18119559
  entropy T*S    EENTRO =        -0.00000000
  eigenvalues    EBANDS =     -5207.77667011
  atomic energy  EATOM  =     37532.17946992
  Solvation  Ediel_sol  =         0.00000000
  ---------------------------------------------------
  free energy    TOTEN  =      -223.77717520 eV

  energy without entropy =     -223.77717520  energy(sigma->0) =     -223.77717520


--------------------------------------------------------------------------------------------------------




--------------------------------------- Iteration      1(   8)  ---------------------------------------


    POTLOK:  cpu time      0.0368: real time      0.0381
    SETDIJ:  cpu time      0.0307: real time      0.0308
     EDDAV:  cpu time      8.0677: real time      8.1135
       DOS:  cpu time      0.0005: real time      0.0005
    CHARGE:  cpu time      0.2716: real time      0.2731
    MIXING:  cpu time      0.0017: real time      0.0017
    --------------------------------------------
      LOOP:  cpu time      8.4089: real time      8.4578

 eigenvalue-minimisations  :  4032
 total energy-change (2. order) :-0.1252602E+00  (-0.2685099E-01)
 number of electron     448.0000022 magnetization 
 augmentation part      112.8094025 magnetization 

 Broyden mixing:
  rms(total) = 0.14303E+00    rms(broyden)= 0.14303E+00
  rms(prec ) = 0.14588E+00
  weight for this iteration     100.00

 eigenvalues of (default mixing * dielectric matrix)
  average eigenvalue GAMMA=   1.5534
  2.5349  1.3877  0.7376

 Free energy of the ion-electron system (eV)
  ---------------------------------------------------
  alpha Z        PSCENC =       751.52672365
  Ewald energy   TEWEN  =    -22871.34026991
  -Hartree energ DENC   =     -9075.21920115
  -exchange      EXHF   =         0.00000000
  -V(xc)+E(xc)   XCENC  =      1472.34492745
  PAW double counting   =     29812.97092883   -32632.84734540
  entropy T*S    EENTRO =        -0.00000000
  eigenvalues    EBANDS =     -5213.51766883
  atomic energy  EATOM  =     37532.17946992
  Solvation  Ediel_sol  =         0.00000000
  ---------------------------------------------------
  free energy    TOTEN  =      -223.90243544 eV

  energy without entropy =     -223.90243544  energy(sigma->0) =     -223.90243544


--------------------------------------------------------------------------------------------------------




--------------------------------------- Iteration      1(   9)  ---------------------------------------


    POTLOK:  cpu time      0.0357: real time      0.0360
    SETDIJ:  cpu time      0.0313: real time      0.0314
     EDDAV:  cpu time      8.4033: real time      8.4507
       DOS:  cpu time      0.0005: real time      0.0005
    CHARGE:  cpu time      0.2769: real time      0.2783
    MIXING:  cpu time      0.0013: real time      0.0013
    --------------------------------------------
      LOOP:  cpu time      8.7489: real time      8.7982

 eigenvalue-minimisations  :  4224
 total energy-change (2. order) : 0.5466339E-02  (-0.1108254E-02)
 number of electron     448.0000022 magnetization 
 augmentation part      112.8306439 magnetization 

 Broyden mixing:
  rms(total) = 0.62349E-01    rms(broyden)= 0.62348E-01
  rms(prec ) = 0.64355E-01
  weight for this iteration     100.00

 eigenvalues of (default mixing * dielectric matrix)
  average eigenvalue GAMMA=   1.9923
  2.7880  2.7880  1.0012  1.3923

 Free energy of the ion-electron system (eV)
  ---------------------------------------------------
  alpha Z        PSCENC =       751.52672365
  Ewald energy   TEWEN  =    -22871.34026991
  -Hartree energ DENC   =     -9077.88583532
  -exchange      EXHF   =         0.00000000
  -V(xc)+E(xc)   XCENC  =      1472.35844237
  PAW double counting   =     29635.23099698   -32454.26877116
  entropy T*S    EENTRO =        -0.00000000
  eigenvalues    EBANDS =     -5211.69772563
  atomic energy  EATOM  =     37532.17946992
  Solvation  Ediel_sol  =         0.00000000
  ---------------------------------------------------
  free energy    TOTEN  =      -223.89696910 eV

  energy without entropy =     -223.89696910  energy(sigma->0) =     -223.89696910


--------------------------------------------------------------------------------------------------------




--------------------------------------- Iteration      1(  10)  ---------------------------------------


    POTLOK:  cpu time      0.0360: real time      0.0403
    SETDIJ:  cpu time      0.0307: real time      0.0308
     EDDAV:  cpu time      8.2194: real time      8.2662
       DOS:  cpu time      0.0005: real time      0.0005
    CHARGE:  cpu time      0.2698: real time      0.2713
    MIXING:  cpu time      0.0024: real time      0.0024
    --------------------------------------------
      LOOP:  cpu time      8.5587: real time      8.6114

 eigenvalue-minimisations  :  4096
 total energy-change (2. order) :-0.4182942E-02  (-0.1823551E-02)
 number of electron     448.0000022 magnetization 
 augmentation part      112.8607881 magnetization 

 Broyden mixing:
  rms(total) = 0.28176E-01    rms(broyden)= 0.28174E-01
  rms(prec ) = 0.30243E-01
  weight for this iteration     100.00

 eigenvalues of (default mixing * dielectric matrix)
  average eigenvalue GAMMA=   1.7098
  2.9382  2.5114  1.2926  1.0228  0.7839

 Free energy of the ion-electron system (eV)
  ---------------------------------------------------
  alpha Z        PSCENC =       751.52672365
  Ewald energy   TEWEN  =    -22871.34026991
  -Hartree energ DENC   =     -9079.42537807
  -exchange      EXHF   =         0.00000000
  -V(xc)+E(xc)   XCENC  =      1472.60201317
  PAW double counting   =     29457.69105541   -32276.90002776
  entropy T*S    EENTRO =        -0.00000000
  eigenvalues    EBANDS =     -5210.23473845
  atomic energy  EATOM  =     37532.17946992
  Solvation  Ediel_sol  =         0.00000000
  ---------------------------------------------------
  free energy    TOTEN  =      -223.90115204 eV

  energy without entropy =     -223.90115204  energy(sigma->0) =     -223.90115204


--------------------------------------------------------------------------------------------------------




--------------------------------------- Iteration      1(  11)  ---------------------------------------


    POTLOK:  cpu time      0.0356: real time      0.0359
    SETDIJ:  cpu time      0.0314: real time      0.0315
     EDDAV:  cpu time      8.9163: real time      8.9667
       DOS:  cpu time      0.0005: real time      0.0005
    CHARGE:  cpu time      0.2706: real time      0.2722
    MIXING:  cpu time      0.0018: real time      0.0018
    --------------------------------------------
      LOOP:  cpu time      9.2563: real time      9.3087

 eigenvalue-minimisations  :  4576
 total energy-change (2. order) : 0.6897642E-03  (-0.1570746E-03)
 number of electron     448.0000022 magnetization 
 augmentation part      112.8518094 magnetization 

 Broyden mixing:
  rms(total) = 0.90154E-02    rms(broyden)= 0.90153E-02
  rms(prec ) = 0.94660E-02
  weight for this iteration     100.00

 eigenvalues of (default mixing * dielectric matrix)
  average eigenvalue GAMMA=   1.5552
  2.9230  2.4592  1.3176  1.0079  0.8116  0.8116

 Free energy of the ion-electron system (eV)
  ---------------------------------------------------
  alpha Z        PSCENC =       751.52672365
  Ewald energy   TEWEN  =    -22871.34026991
  -Hartree energ DENC   =     -9078.34924281
  -exchange      EXHF   =         0.00000000
  -V(xc)+E(xc)   XCENC  =      1472.52934459
  PAW double counting   =     29486.75052251   -32306.11530707
  entropy T*S    EENTRO =        -0.00000000
  eigenvalues    EBANDS =     -5211.08170316
  atomic energy  EATOM  =     37532.17946992
  Solvation  Ediel_sol  =         0.00000000
  ---------------------------------------------------
  free energy    TOTEN  =      -223.90046228 eV

  energy without entropy =     -223.90046228  energy(sigma->0) =     -223.90046228


--------------------------------------------------------------------------------------------------------




--------------------------------------- Iteration      1(  12)  ---------------------------------------


    POTLOK:  cpu time      0.0357: real time      0.0359
    SETDIJ:  cpu time      0.0307: real time      0.0308
     EDDAV:  cpu time      8.7195: real time      8.7681
       DOS:  cpu time      0.0004: real time      0.0004
    CHARGE:  cpu time      0.2677: real time      0.2690
    MIXING:  cpu time      0.0022: real time      0.0022
    --------------------------------------------
      LOOP:  cpu time      9.0561: real time      9.1065

 eigenvalue-minimisations  :  4448
 total energy-change (2. order) : 0.3660576E-04  (-0.1270771E-04)
 number of electron     448.0000022 magnetization 
 augmentation part      112.8492913 magnetization 

 Broyden mixing:
  rms(total) = 0.24137E-02    rms(broyden)= 0.24132E-02
  rms(prec ) = 0.26991E-02
  weight for this iteration     100.00

 eigenvalues of (default mixing * dielectric matrix)
  average eigenvalue GAMMA=   1.5551
  2.8930  2.4077  1.3687  1.2025  1.2025  1.0497  0.7616

 Free energy of the ion-electron system (eV)
  ---------------------------------------------------
  alpha Z        PSCENC =       751.52672365
  Ewald energy   TEWEN  =    -22871.34026991
  -Hartree energ DENC   =     -9078.21791886
  -exchange      EXHF   =         0.00000000
  -V(xc)+E(xc)   XCENC  =      1472.52056984
  PAW double counting   =     29496.63391054   -32316.00397955
  entropy T*S    EENTRO =        -0.00000000
  eigenvalues    EBANDS =     -5211.19893130
  atomic energy  EATOM  =     37532.17946992
  Solvation  Ediel_sol  =         0.00000000
  ---------------------------------------------------
  free energy    TOTEN  =      -223.90042567 eV

  energy without entropy =     -223.90042567  energy(sigma->0) =     -223.90042567


--------------------------------------------------------------------------------------------------------




--------------------------------------- Iteration      1(  13)  ---------------------------------------


    POTLOK:  cpu time      0.0358: real time      0.0368
    SETDIJ:  cpu time      0.0312: real time      0.0313
     EDDAV:  cpu time      8.4104: real time      8.4572
       DOS:  cpu time      0.0005: real time      0.0005
    CHARGE:  cpu time      0.2681: real time      0.2698
    MIXING:  cpu time      0.0013: real time      0.0013
    --------------------------------------------
      LOOP:  cpu time      8.7473: real time      8.7969

 eigenvalue-minimisations  :  4224
 total energy-change (2. order) : 0.6175644E-05  (-0.3088986E-05)
 number of electron     448.0000022 magnetization 
 augmentation part      112.8478432 magnetization 

 Broyden mixing:
  rms(total) = 0.37917E-03    rms(broyden)= 0.37842E-03
  rms(prec ) = 0.45867E-03
  weight for this iteration     100.00

 eigenvalues of (default mixing * dielectric matrix)
  average eigenvalue GAMMA=   1.6075
  2.9860  2.2931  2.2931  1.2038  0.9484  1.0991  1.0182  1.0182

 Free energy of the ion-electron system (eV)
  ---------------------------------------------------
  alpha Z        PSCENC =       751.52672365
  Ewald energy   TEWEN  =    -22871.34026991
  -Hartree energ DENC   =     -9078.12317635
  -exchange      EXHF   =         0.00000000
  -V(xc)+E(xc)   XCENC  =      1472.51147744
  PAW double counting   =     29498.82083436   -32318.19613963
  entropy T*S    EENTRO =        -0.00000000
  eigenvalues    EBANDS =     -5211.27933897
  atomic energy  EATOM  =     37532.17946992
  Solvation  Ediel_sol  =         0.00000000
  ---------------------------------------------------
  free energy    TOTEN  =      -223.90041950 eV

  energy without entropy =     -223.90041950  energy(sigma->0) =     -223.90041950


--------------------------------------------------------------------------------------------------------




--------------------------------------- Iteration      1(  14)  ---------------------------------------


    POTLOK:  cpu time      0.0357: real time      0.0360
    SETDIJ:  cpu time      0.0309: real time      0.0311
     EDDAV:  cpu time      8.1140: real time      8.1615
       DOS:  cpu time      0.0005: real time      0.0005
    CHARGE:  cpu time      0.2706: real time      0.2721
    MIXING:  cpu time      0.0013: real time      0.0013
    --------------------------------------------
      LOOP:  cpu time      8.4530: real time      8.5025

 eigenvalue-minimisations  :  4064
 total energy-change (2. order) :-0.1980108E-05  (-0.3100996E-06)
 number of electron     448.0000022 magnetization 
 augmentation part      112.8477331 magnetization 

 Broyden mixing:
  rms(total) = 0.71805E-03    rms(broyden)= 0.71802E-03
  rms(prec ) = 0.73949E-03
  weight for this iteration     100.00

 eigenvalues of (default mixing * dielectric matrix)
  average eigenvalue GAMMA=   1.6468
  3.0464  2.6055  2.6055  1.3829  1.2138  1.2138  0.9558  0.9558  0.8411

 Free energy of the ion-electron system (eV)
  ---------------------------------------------------
  alpha Z        PSCENC =       751.52672365
  Ewald energy   TEWEN  =    -22871.34026991
  -Hartree energ DENC   =     -9078.13310214
  -exchange      EXHF   =         0.00000000
  -V(xc)+E(xc)   XCENC  =      1472.51262581
  PAW double counting   =     29499.76523665   -32319.13524487
  entropy T*S    EENTRO =        -0.00000000
  eigenvalues    EBANDS =     -5211.27586059
  atomic energy  EATOM  =     37532.17946992
  Solvation  Ediel_sol  =         0.00000000
  ---------------------------------------------------
  free energy    TOTEN  =      -223.90042148 eV

  energy without entropy =     -223.90042148  energy(sigma->0) =     -223.90042148


--------------------------------------------------------------------------------------------------------




--------------------------------------- Iteration      1(  15)  ---------------------------------------


    POTLOK:  cpu time      0.0361: real time      0.0375
    SETDIJ:  cpu time      0.0302: real time      0.0303
     EDDAV:  cpu time      8.9741: real time      9.0233
       DOS:  cpu time      0.0006: real time      0.0006
    CHARGE:  cpu time      0.2694: real time      0.2709
    MIXING:  cpu time      0.0023: real time      0.0023
    --------------------------------------------
      LOOP:  cpu time      9.3126: real time      9.3648

 eigenvalue-minimisations  :  4608
 total energy-change (2. order) :-0.1050568E-05  (-0.3515512E-07)
 number of electron     448.0000022 magnetization 
 augmentation part      112.8477628 magnetization 

 Broyden mixing:
  rms(total) = 0.32573E-03    rms(broyden)= 0.32573E-03
  rms(prec ) = 0.33890E-03
  weight for this iteration     100.00

 eigenvalues of (default mixing * dielectric matrix)
  average eigenvalue GAMMA=   1.5965
  3.0767  2.6388  2.5748  1.4743  1.2772  1.2772  0.9182  0.9182  0.9281  0.8816

 Free energy of the ion-electron system (eV)
  ---------------------------------------------------
  alpha Z        PSCENC =       751.52672365
  Ewald energy   TEWEN  =    -22871.34026991
  -Hartree energ DENC   =     -9078.15584960
  -exchange      EXHF   =         0.00000000
  -V(xc)+E(xc)   XCENC  =      1472.51293021
  PAW double counting   =     29498.91850047   -32318.28357870
  entropy T*S    EENTRO =        -0.00000000
  eigenvalues    EBANDS =     -5211.25834857
  atomic energy  EATOM  =     37532.17946992
  Solvation  Ediel_sol  =         0.00000000
  ---------------------------------------------------
  free energy    TOTEN  =      -223.90042253 eV

  energy without entropy =     -223.90042253  energy(sigma->0) =     -223.90042253


--------------------------------------------------------------------------------------------------------




--------------------------------------- Iteration      1(  16)  ---------------------------------------


    POTLOK:  cpu time      0.0355: real time      0.0360
    SETDIJ:  cpu time      0.0303: real time      0.0305
     EDDAV:  cpu time      8.3939: real time      8.4397
       DOS:  cpu time      0.0004: real time      0.0004
    CHARGE:  cpu time      0.2753: real time      0.2767
    MIXING:  cpu time      0.0019: real time      0.0019
    --------------------------------------------
      LOOP:  cpu time      8.7373: real time      8.7851

 eigenvalue-minimisations  :  4224
 total energy-change (2. order) :-0.4110116E-06  (-0.1332023E-07)
 number of electron     448.0000022 magnetization 
 augmentation part      112.8478320 magnetization 

 Broyden mixing:
  rms(total) = 0.10733E-03    rms(broyden)= 0.10732E-03
  rms(prec ) = 0.11414E-03
  weight for this iteration     100.00

 eigenvalues of (default mixing * dielectric matrix)
  average eigenvalue GAMMA=   1.5585
  3.0911  2.6038  2.5693  1.4272  1.1604  1.1604  1.2291  1.2291  0.9035  0.9035
  0.8658

 Free energy of the ion-electron system (eV)
  ---------------------------------------------------
  alpha Z        PSCENC =       751.52672365
  Ewald energy   TEWEN  =    -22871.34026991
  -Hartree energ DENC   =     -9078.16549845
  -exchange      EXHF   =         0.00000000
  -V(xc)+E(xc)   XCENC  =      1472.51340784
  PAW double counting   =     29498.51525887   -32317.87995072
  entropy T*S    EENTRO =        -0.00000000
  eigenvalues    EBANDS =     -5211.24956414
  atomic energy  EATOM  =     37532.17946992
  Solvation  Ediel_sol  =         0.00000000
  ---------------------------------------------------
  free energy    TOTEN  =      -223.90042294 eV

  energy without entropy =     -223.90042294  energy(sigma->0) =     -223.90042294


--------------------------------------------------------------------------------------------------------




--------------------------------------- Iteration      1(  17)  ---------------------------------------


    POTLOK:  cpu time      0.0362: real time      0.0405
    SETDIJ:  cpu time      0.0304: real time      0.0306
     EDDAV:  cpu time      6.2906: real time      6.3257
       DOS:  cpu time      0.0004: real time      0.0004
    CHARGE:  cpu time      0.2773: real time      0.2786
    MIXING:  cpu time      0.0017: real time      0.0017
    --------------------------------------------
      LOOP:  cpu time      6.6367: real time      6.6775

 eigenvalue-minimisations  :  2848
 total energy-change (2. order) :-0.7065682E-07  (-0.9187245E-09)
 number of electron     448.0000022 magnetization 
 augmentation part      112.8478407 magnetization 

 Broyden mixing:
  rms(total) = 0.35959E-04    rms(broyden)= 0.35944E-04
  rms(prec ) = 0.43221E-04
  weight for this iteration     100.00

 eigenvalues of (default mixing * dielectric matrix)
  average eigenvalue GAMMA=   1.6155
  3.1842  2.9126  2.1863  2.1863  1.3835  1.3835  1.2154  1.2154  0.9678  0.9678
  0.9285  0.8542

 Free energy of the ion-electron system (eV)
  ---------------------------------------------------
  alpha Z        PSCENC =       751.52672365
  Ewald energy   TEWEN  =    -22871.34026991
  -Hartree energ DENC   =     -9078.16747900
  -exchange      EXHF   =         0.00000000
  -V(xc)+E(xc)   XCENC  =      1472.51347975
  PAW double counting   =     29498.35737118   -32317.72221214
  entropy T*S    EENTRO =        -0.00000000
  eigenvalues    EBANDS =     -5211.24750646
  atomic energy  EATOM  =     37532.17946992
  Solvation  Ediel_sol  =         0.00000000
  ---------------------------------------------------
  free energy    TOTEN  =      -223.90042301 eV

  energy without entropy =     -223.90042301  energy(sigma->0) =     -223.90042301


--------------------------------------------------------------------------------------------------------




--------------------------------------- Iteration      1(  18)  ---------------------------------------


    POTLOK:  cpu time      0.0358: real time      0.0361
    SETDIJ:  cpu time      0.0309: real time      0.0311
     EDDAV:  cpu time      7.2249: real time      7.2650
       DOS:  cpu time      0.0005: real time      0.0005
    CHARGE:  cpu time      0.2706: real time      0.2722
    MIXING:  cpu time      0.0017: real time      0.0017
    --------------------------------------------
      LOOP:  cpu time      7.5643: real time      7.6065

 eigenvalue-minimisations  :  3456
 total energy-change (2. order) :-0.1508961E-06  (-0.1982817E-08)
 number of electron     448.0000022 magnetization 
 augmentation part      112.8478624 magnetization 

 Broyden mixing:
  rms(total) = 0.55761E-04    rms(broyden)= 0.55750E-04
  rms(prec ) = 0.58401E-04
  weight for this iteration     100.00

 eigenvalues of (default mixing * dielectric matrix)
  average eigenvalue GAMMA=   1.5346
  3.2135  2.9472  2.2907  2.2907  1.2606  1.2606  1.1978  1.1978  0.9400  0.9400
  0.9226  0.8280  0.6605

 Free energy of the ion-electron system (eV)
  ---------------------------------------------------
  alpha Z        PSCENC =       751.52672365
  Ewald energy   TEWEN  =    -22871.34026991
  -Hartree energ DENC   =     -9078.17163916
  -exchange      EXHF   =         0.00000000
  -V(xc)+E(xc)   XCENC  =      1472.51364608
  PAW double counting   =     29498.20830196   -32317.57288279
  entropy T*S    EENTRO =        -0.00000000
  eigenvalues    EBANDS =     -5211.24377291
  atomic energy  EATOM  =     37532.17946992
  Solvation  Ediel_sol  =         0.00000000
  ---------------------------------------------------
  free energy    TOTEN  =      -223.90042316 eV

  energy without entropy =     -223.90042316  energy(sigma->0) =     -223.90042316


--------------------------------------------------------------------------------------------------------




--------------------------------------- Iteration      1(  19)  ---------------------------------------


    POTLOK:  cpu time      0.0357: real time      0.0360
    SETDIJ:  cpu time      0.0314: real time      0.0315
     EDDAV:  cpu time      5.5469: real time      5.5774
       DOS:  cpu time      0.0005: real time      0.0004
    CHARGE:  cpu time      0.2702: real time      0.2717
    MIXING:  cpu time      0.0015: real time      0.0016
    --------------------------------------------
      LOOP:  cpu time      5.8862: real time      5.9186

 eigenvalue-minimisations  :  2400
 total energy-change (2. order) : 0.2257002E-07  (-0.9688950E-09)
 number of electron     448.0000022 magnetization 
 augmentation part      112.8478630 magnetization 

 Broyden mixing:
  rms(total) = 0.42821E-04    rms(broyden)= 0.42809E-04
  rms(prec ) = 0.44582E-04
  weight for this iteration     100.00

 eigenvalues of (default mixing * dielectric matrix)
  average eigenvalue GAMMA=   1.5730
  3.3237  2.9602  2.4049  2.4049  1.2083  1.2083  1.2584  1.2584  1.2647  0.9261
  0.9261  1.0663  0.9700  0.8419

 Free energy of the ion-electron system (eV)
  ---------------------------------------------------
  alpha Z        PSCENC =       751.52672365
  Ewald energy   TEWEN  =    -22871.34026991
  -Hartree energ DENC   =     -9078.17122929
  -exchange      EXHF   =         0.00000000
  -V(xc)+E(xc)   XCENC  =      1472.51361356
  PAW double counting   =     29498.23693804   -32317.60140762
  entropy T*S    EENTRO =        -0.00000000
  eigenvalues    EBANDS =     -5211.24426149
  atomic energy  EATOM  =     37532.17946992
  Solvation  Ediel_sol  =         0.00000000
  ---------------------------------------------------
  free energy    TOTEN  =      -223.90042314 eV

  energy without entropy =     -223.90042314  energy(sigma->0) =     -223.90042314


--------------------------------------------------------------------------------------------------------




--------------------------------------- Iteration      1(  20)  ---------------------------------------


    POTLOK:  cpu time      0.0356: real time      0.0359
    SETDIJ:  cpu time      0.0298: real time      0.0302
     EDDAV:  cpu time      5.6265: real time      5.6595
       DOS:  cpu time      0.0004: real time      0.0004
    CHARGE:  cpu time      0.2689: real time      0.2705
    MIXING:  cpu time      0.0020: real time      0.0020
    --------------------------------------------
      LOOP:  cpu time      5.9632: real time      5.9985

 eigenvalue-minimisations  :  2464
 total energy-change (2. order) : 0.5390029E-07  (-0.2858811E-09)
 number of electron     448.0000022 magnetization 
 augmentation part      112.8478589 magnetization 

 Broyden mixing:
  rms(total) = 0.24394E-04    rms(broyden)= 0.24375E-04
  rms(prec ) = 0.25284E-04
  weight for this iteration     100.00

 eigenvalues of (default mixing * dielectric matrix)
  average eigenvalue GAMMA=   1.6211
  3.6513  2.9115  2.5334  2.5334  1.9665  1.3304  1.3304  1.2090  1.2090  1.0745
  1.0745  0.9414  0.9414  0.8047  0.8047

 Free energy of the ion-electron system (eV)
  ---------------------------------------------------
  alpha Z        PSCENC =       751.52672365
  Ewald energy   TEWEN  =    -22871.34026991
  -Hartree energ DENC   =     -9078.17030199
  -exchange      EXHF   =         0.00000000
  -V(xc)+E(xc)   XCENC  =      1472.51357920
  PAW double counting   =     29498.27233789   -32317.63685057
  entropy T*S    EENTRO =        -0.00000000
  eigenvalues    EBANDS =     -5211.24511127
  atomic energy  EATOM  =     37532.17946992
  Solvation  Ediel_sol  =         0.00000000
  ---------------------------------------------------
  free energy    TOTEN  =      -223.90042308 eV

  energy without entropy =     -223.90042308  energy(sigma->0) =     -223.90042308


--------------------------------------------------------------------------------------------------------




--------------------------------------- Iteration      1(  21)  ---------------------------------------


    POTLOK:  cpu time      0.0358: real time      0.0367
    SETDIJ:  cpu time      0.0305: real time      0.0307
     EDDAV:  cpu time      5.4999: real time      5.5322
       DOS:  cpu time      0.0005: real time      0.0005
    CHARGE:  cpu time      0.2723: real time      0.2738
    MIXING:  cpu time      0.0021: real time      0.0021
    --------------------------------------------
      LOOP:  cpu time      5.8410: real time      5.8761

 eigenvalue-minimisations  :  2368
 total energy-change (2. order) : 0.4847971E-07  (-0.3209809E-09)
 number of electron     448.0000022 magnetization 
 augmentation part      112.8478528 magnetization 

 Broyden mixing:
  rms(total) = 0.10723E-04    rms(broyden)= 0.10678E-04
  rms(prec ) = 0.11476E-04
  weight for this iteration     100.00

 eigenvalues of (default mixing * dielectric matrix)
  average eigenvalue GAMMA=   1.6370
  4.0754  2.9395  2.9395  2.3557  2.1044  1.2949  1.2949  1.2281  1.2281  1.1068
  1.1068  0.9452  0.9452  0.9144  0.9144  0.7981

 Free energy of the ion-electron system (eV)
  ---------------------------------------------------
  alpha Z        PSCENC =       751.52672365
  Ewald energy   TEWEN  =    -22871.34026991
  -Hartree energ DENC   =     -9078.16915132
  -exchange      EXHF   =         0.00000000
  -V(xc)+E(xc)   XCENC  =      1472.51352799
  PAW double counting   =     29498.30921529   -32317.67375939
  entropy T*S    EENTRO =        -0.00000000
  eigenvalues    EBANDS =     -5211.24617926
  atomic energy  EATOM  =     37532.17946992
  Solvation  Ediel_sol  =         0.00000000
  ---------------------------------------------------
  free energy    TOTEN  =      -223.90042303 eV

  energy without entropy =     -223.90042303  energy(sigma->0) =     -223.90042303


--------------------------------------------------------------------------------------------------------




--------------------------------------- Iteration      1(  22)  ---------------------------------------


    POTLOK:  cpu time      0.0357: real time      0.0359
    SETDIJ:  cpu time      0.0302: real time      0.0304
     EDDAV:  cpu time      5.3959: real time      5.4277
       DOS:  cpu time      0.0005: real time      0.0005
    --------------------------------------------
      LOOP:  cpu time      5.4622: real time      5.4945

 eigenvalue-minimisations  :  2304
 total energy-change (2. order) :-0.2750312E-08  (-0.1079952E-09)
 number of electron     448.0000022 magnetization 
 augmentation part      112.8478528 magnetization 

 Free energy of the ion-electron system (eV)
  ---------------------------------------------------
[...]
         0         1         2         3         4         5         6         7         8         9
 total charge-density along one line
 
 pseudopotential strength for first ion, spin component:           1
-25.391  -0.000  -0.000   2.512   0.000   0.000   0.000   0.000
 -0.000 -25.391  -0.000   0.000   2.512   0.000   0.000   0.000
 -0.000  -0.000 -25.391   0.000   0.000   2.512   0.000   0.000
  2.512   0.000   0.000   6.528  -0.000  -0.000  -0.000   0.000
  0.000   2.512   0.000  -0.000   6.528  -0.000  -0.000   0.000
  0.000   0.000   2.512  -0.000  -0.000   6.528  -0.000   0.000
  0.000   0.000   0.000  -0.000  -0.000  -0.000   1.428   6.993
  0.000   0.000   0.000   0.000   0.000   0.000   6.993  33.990
 total augmentation occupancy for first ion, spin component:           1
  2.002   0.000   0.000   0.002   0.000   0.000  -0.000   0.000
  0.000   2.002   0.000   0.000   0.002   0.000  -0.000   0.000
  0.000   0.000   2.002   0.000   0.000   0.002  -0.000   0.000
  0.002   0.000   0.000   0.017   0.000   0.000  -0.000  -0.000
  0.000   0.002   0.000   0.000   0.017   0.000  -0.000  -0.000
  0.000   0.000   0.002   0.000   0.000   0.017  -0.000  -0.000
 -0.000  -0.000  -0.000  -0.000  -0.000  -0.000   0.403  -0.001
  0.000   0.000   0.000  -0.000  -0.000  -0.000  -0.001   0.000


------------------------ aborting loop because EDIFF is reached ----------------------------------------


    CHARGE:  cpu time      0.2674: real time      0.2691
    FORLOC:  cpu time      0.0112: real time      0.0112
    FORNL :  cpu time      1.6980: real time      1.7080
    STRESS:  cpu time      9.2126: real time      9.2610
    FORCOR:  cpu time      0.0431: real time      0.0433
    FORHAR:  cpu time      0.0170: real time      0.0171
    MIXING:  cpu time      0.0013: real time      0.0014
    OFIELD:  cpu time      0.0000: real time      0.0000

  FORCE on cell =-STRESS in cart. coord.  units (eV):
  Direction    XX          YY          ZZ          XY          YZ          ZX
  --------------------------------------------------------------------------------------
  Alpha Z   751.52672   751.52672   751.52672
  Ewald   -7623.77536 -7623.77536 -7623.92689    -0.18048     0.00000     0.00000
  Hartree  3026.07348  3026.07348  3026.02260    -0.11559    -0.00000    -0.00000
  E(xc)   -2014.34814 -2014.34814 -2014.34821    -0.00004    -0.00000    -0.00000
  Local   -2024.95908 -2024.95908 -2024.76155     0.29366    -0.00000    -0.00000
  n-local  1887.57139  1887.68061  1887.62068    -0.00260     0.00000     0.00000
  augment   687.00932   687.00932   687.00911    -0.00031    -0.00010    -0.00010
  Kinetic  5310.35207  5310.69901  5310.52566     0.00342     0.00000     0.00000
  Fock        0.00000     0.00000     0.00000     0.00000     0.00000     0.00000
  -------------------------------------------------------------------------------------
  Total      -0.32150    -0.32150    -0.33187    -0.00193     0.00000     0.00000
  in kB      -0.36625    -0.36625    -0.37806    -0.00220     0.00000     0.00000
  external pressure =       -0.37 kB  Pullay stress =        0.00 kB


 VOLUME and BASIS-vectors are now :
 -----------------------------------------------------------------------------
  energy-cutoff  :      341.21
  volume of cell :     1406.43
      direct lattice vectors                 reciprocal lattice vectors
    11.204002360  0.000000000  0.000000000     0.089253819  0.000000000  0.000000000
     0.000000000 11.204002360  0.000000000     0.000000000  0.089253819  0.000000000
     0.000000000  0.000000000 11.204002360     0.000000000  0.000000000  0.089253819

  length of vectors
    11.204002360 11.204002360 11.204002360     0.089253819  0.089253819  0.089253819


 FORCES acting on ions
    electron-ion (+dipol)            ewald-force                    non-local-force                 convergence-correction
 -----------------------------------------------------------------------------------------------
   -.230E+00 -.230E+00 -.330E+00   0.222E+00 0.222E+00 0.315E+00   0.653E-02 0.653E-02 0.119E-01   -.238E-05 -.238E-05 -.503E-05
   0.961E+00 0.961E+00 -.319E-01   -.918E+00 -.918E+00 0.305E-01   -.376E-01 -.376E-01 0.154E-02   0.258E-05 0.258E-05 0.176E-06
   0.930E+00 -.213E+01 0.731E-06   -.889E+00 0.201E+01 0.142E-13   -.364E-01 0.139E+00 -.849E-23   0.391E-05 0.498E-06 0.170E-12
   -.213E+01 0.930E+00 0.731E-06   0.201E+01 -.889E+00 -.711E-14   0.139E+00 -.364E-01 -.991E-23   0.498E-06 0.391E-05 0.171E-12
   -.230E+00 -.230E+00 0.330E+00   0.222E+00 0.222E+00 -.315E+00   0.653E-02 0.653E-02 -.119E-01   -.238E-05 -.238E-05 0.503E-05
   0.961E+00 0.961E+00 0.319E-01   -.918E+00 -.918E+00 -.305E-01   -.376E-01 -.376E-01 -.154E-02   0.258E-05 0.258E-05 -.176E-06
   0.112E+00 -.179E-01 -.491E-08   -.109E+00 0.189E-01 0.888E-15   -.274E-02 -.859E-03 0.308E-24   0.261E-06 -.158E-06 -.136E-13
   -.179E-01 0.112E+00 -.491E-08   0.189E-01 -.109E+00 -.178E-14   -.859E-03 -.274E-02 -.296E-24   -.158E-06 0.261E-06 -.418E-13
   0.101E+00 0.106E+00 -.162E-02   -.944E-01 -.992E-01 0.150E-02   -.556E-02 -.564E-02 0.983E-04   0.168E-05 0.150E-05 -.161E-06
   0.113E+00 -.300E+00 0.120E-02   -.109E+00 0.281E+00 -.118E-02   -.273E-02 0.156E-01 -.196E-04   -.592E-06 -.253E-05 0.143E-06
   0.993E+00 -.216E+01 0.732E-06   -.950E+00 0.204E+01 0.142E-13   -.390E-01 0.142E+00 -.109E-22   0.112E-05 0.117E-05 0.174E-12
   -.159E-01 -.296E+00 0.705E-09   0.170E-01 0.278E+00 0.711E-14   -.860E-03 0.152E-01 0.996E-25   -.119E-07 -.399E-05 0.157E-12
   0.101E+00 0.106E+00 0.162E-02   -.944E-01 -.992E-01 -.150E-02   -.556E-02 -.564E-02 -.983E-04   0.168E-05 0.150E-05 0.161E-06
   0.113E+00 -.300E+00 -.120E-02   -.109E+00 0.281E+00 0.118E-02   -.273E-02 0.156E-01 0.196E-04   -.592E-06 -.253E-05 -.143E-06
   0.114E+00 -.147E-01 -.492E-08   -.110E+00 0.158E-01 0.178E-14   -.272E-02 -.922E-03 -.908E-25   -.134E-05 0.530E-06 -.101E-13
   -.246E-02 -.966E-01 0.389E-11   0.246E-02 0.929E-01 0.178E-14   0.731E-05 0.296E-02 -.899E-25   0.675E-07 0.580E-06 -.313E-13
   0.106E+00 0.101E+00 -.162E-02   -.992E-01 -.944E-01 0.150E-02   -.564E-02 -.556E-02 0.983E-04   0.150E-05 0.168E-05 -.161E-06
   -.300E+00 0.113E+00 0.120E-02   0.281E+00 -.109E+00 -.118E-02   0.156E-01 -.273E-02 -.196E-04   -.253E-05 -.592E-06 0.143E-06
   -.296E+00 -.159E-01 0.704E-09   0.278E+00 0.170E-01 0.142E-13   0.152E-01 -.860E-03 0.895E-26   -.399E-05 -.119E-07 0.157E-12
   -.216E+01 0.993E+00 0.732E-06   0.204E+01 -.950E+00 0.711E-14   0.142E+00 -.390E-01 -.762E-23   0.117E-05 0.112E-05 0.167E-12
   0.106E+00 0.101E+00 0.162E-02   -.992E-01 -.944E-01 -.150E-02   -.564E-02 -.556E-02 -.983E-04   0.150E-05 0.168E-05 0.161E-06
   -.300E+00 0.113E+00 -.120E-02   0.281E+00 -.109E+00 0.118E-02   0.156E-01 -.273E-02 0.196E-04   -.253E-05 -.592E-06 -.143E-06
   -.966E-01 -.246E-02 0.170E-12   0.929E-01 0.246E-02 0.178E-14   0.296E-02 0.731E-05 0.128E-24   0.580E-06 0.675E-07 -.381E-13
   -.147E-01 0.114E+00 -.492E-08   0.158E-01 -.110E+00 -.533E-14   -.922E-03 -.272E-02 -.869E-25   0.530E-06 -.134E-05 -.181E-13
   -.232E+00 -.232E+00 0.339E+00   0.224E+00 0.224E+00 -.324E+00   0.649E-02 0.649E-02 -.123E-01   -.101E-05 -.101E-05 0.251E-05
   -.971E-01 -.971E-01 0.579E-03   0.935E-01 0.935E-01 -.547E-03   0.295E-02 0.295E-02 -.270E-04   0.295E-06 0.295E-06 0.441E-06
   -.303E+00 -.167E-01 -.132E-08   0.284E+00 0.178E-01 0.142E-13   0.159E-01 -.923E-03 -.131E-24   -.135E-05 -.409E-08 0.161E-12
   -.167E-01 -.303E+00 -.132E-08   0.178E-01 0.284E+00 0.711E-14   -.923E-03 0.159E-01 0.109E-24   -.409E-08 -.135E-05 0.160E-12
   -.232E+00 -.232E+00 -.339E+00   0.224E+00 0.224E+00 0.324E+00   0.649E-02 0.649E-02 0.123E-01   -.101E-05 -.101E-05 -.251E-05
   -.971E-01 -.971E-01 -.579E-03   0.935E-01 0.935E-01 0.547E-03   0.295E-02 0.295E-02 0.270E-04   0.295E-06 0.295E-06 -.441E-06
   -.976E-01 -.189E-02 -.109E-10   0.940E-01 0.191E-02 0.000E+00   0.295E-02 -.863E-05 0.250E-25   0.101E-05 -.544E-06 -.259E-13
   -.189E-02 -.976E-01 -.357E-11   0.191E-02 0.940E-01 -.533E-14   -.863E-05 0.295E-02 0.419E-25   -.544E-06 0.101E-05 -.122E-13
   0.402E+01 0.402E+01 -.752E-05   -.397E+01 -.397E+01 0.169E-13   -.121E+00 -.121E+00 -.258E-22   0.507E-05 0.507E-05 0.171E-12
   -.725E+00 -.725E+00 0.275E-09   0.712E+00 0.712E+00 -.115E-13   0.226E-01 0.226E-01 0.803E-27   -.235E-05 -.235E-05 0.182E-12
   -.258E+00 0.306E+00 -.481E+00   0.253E+00 -.303E+00 0.473E+00   0.928E-02 -.580E-02 0.138E-01   -.165E-06 -.208E-06 -.174E-05
   0.306E+00 -.258E+00 -.481E+00   -.303E+00 0.253E+00 0.473E+00   -.580E-02 0.928E-02 0.138E-01   -.208E-06 -.165E-06 -.174E-05
   0.166E+00 0.166E+00 -.151E-08   -.163E+00 -.163E+00 -.169E-13   -.392E-02 -.392E-02 0.643E-25   -.148E-05 -.148E-05 -.683E-14
   -.485E-01 -.485E-01 -.102E-10   0.477E-01 0.477E-01 -.124E-13   0.134E-02 0.134E-02 0.631E-26   -.165E-05 -.165E-05 -.636E-14
   -.258E+00 0.306E+00 0.481E+00   0.253E+00 -.303E+00 -.473E+00   0.928E-02 -.580E-02 -.138E-01   -.165E-06 -.208E-06 0.174E-05
   0.306E+00 -.258E+00 0.481E+00   -.303E+00 0.253E+00 -.473E+00   -.580E-02 0.928E-02 -.138E-01   -.208E-06 -.165E-06 0.174E-05
   0.166E+00 -.522E+00 0.778E-06   -.163E+00 0.516E+00 -.133E-13   -.392E-02 0.959E-02 -.546E-24   -.161E-05 -.256E-05 0.164E-12
   0.222E+00 0.235E+00 0.219E-09   -.220E+00 -.232E+00 -.107E-13   -.443E-02 -.481E-02 0.365E-25   0.207E-05 0.198E-05 0.181E-12
   -.794E-02 -.174E+00 -.391E-01   0.799E-02 0.172E+00 0.383E-01   -.935E-04 0.389E-02 0.142E-02   0.304E-06 0.124E-05 -.154E-05
   0.317E+00 -.250E+00 0.484E+00   -.313E+00 0.244E+00 -.476E+00   -.598E-02 0.923E-02 -.140E-01   -.894E-06 -.532E-06 0.223E-05
   0.682E-01 -.131E+00 -.755E-09   -.674E-01 0.128E+00 -.151E-13   -.132E-02 0.495E-02 0.600E-25   -.457E-05 0.917E-06 0.191E-14
   0.312E-01 0.330E-01 0.106E-11   -.303E-01 -.321E-01 -.107E-13   -.153E-02 -.155E-02 0.496E-24   0.220E-05 0.165E-05 -.643E-14
   -.794E-02 -.174E+00 0.391E-01   0.799E-02 0.172E+00 -.383E-01   -.935E-04 0.389E-02 -.142E-02   0.304E-06 0.124E-05 0.154E-05
   0.317E+00 -.250E+00 -.484E+00   -.313E+00 0.244E+00 0.476E+00   -.598E-02 0.923E-02 0.140E-01   -.894E-06 -.532E-06 -.223E-05
   -.522E+00 0.166E+00 0.778E-06   0.516E+00 -.163E+00 -.107E-13   0.959E-02 -.392E-02 0.789E-24   -.256E-05 -.161E-05 0.188E-12
   0.235E+00 0.222E+00 0.214E-09   -.232E+00 -.220E+00 -.124E-13   -.481E-02 -.443E-02 0.211E-25   0.198E-05 0.207E-05 0.173E-12
   -.250E+00 0.317E+00 0.484E+00   0.244E+00 -.313E+00 -.476E+00   0.923E-02 -.598E-02 -.140E-01   -.532E-06 -.894E-06 0.223E-05
   -.174E+00 -.794E-02 -.391E-01   0.172E+00 0.799E-02 0.383E-01   0.389E-02 -.935E-04 0.142E-02   0.124E-05 0.304E-06 -.154E-05
   -.131E+00 0.682E-01 -.758E-09   0.128E+00 -.674E-01 -.107E-13   0.495E-02 -.132E-02 -.363E-25   0.917E-06 -.457E-05 -.752E-15
   0.330E-01 0.312E-01 0.682E-11   -.321E-01 -.303E-01 -.178E-14   -.155E-02 -.153E-02 0.409E-24   0.165E-05 0.220E-05 0.555E-14
   -.250E+00 0.317E+00 -.484E+00   0.244E+00 -.313E+00 0.476E+00   0.923E-02 -.598E-02 0.140E-01   -.532E-06 -.894E-06 -.223E-05
   -.174E+00 -.794E-02 0.391E-01   0.172E+00 0.799E-02 -.383E-01   0.389E-02 -.935E-04 -.142E-02   0.124E-05 0.304E-06 0.154E-05
   -.131E+00 -.131E+00 0.501E-11   0.128E+00 0.128E+00 -.107E-13   0.496E-02 0.496E-02 0.239E-24   0.174E-05 0.174E-05 0.184E-12
   -.748E+00 -.748E+00 0.162E-09   0.734E+00 0.734E+00 -.107E-13   0.237E-01 0.237E-01 -.150E-24   -.215E-05 -.215E-05 0.168E-12
   -.780E-02 -.177E+00 0.408E-01   0.787E-02 0.175E+00 -.400E-01   -.117E-03 0.395E-02 -.146E-02   0.267E-06 0.117E-05 0.161E-05
   -.177E+00 -.780E-02 0.408E-01   0.175E+00 0.787E-02 -.400E-01   0.395E-02 -.117E-03 -.146E-02   0.117E-05 0.267E-06 0.161E-05
   -.639E-01 -.639E-01 -.296E-11   0.630E-01 0.630E-01 -.355E-14   0.135E-02 0.135E-02 -.441E-25   0.548E-05 0.548E-05 0.468E-14
   -.472E-01 -.472E-01 0.147E-10   0.464E-01 0.464E-01 -.355E-14   0.132E-02 0.132E-02 0.217E-25   -.189E-05 -.189E-05 0.918E-14
   -.780E-02 -.177E+00 -.408E-01   0.787E-02 0.175E+00 0.400E-01   -.117E-03 0.395E-02 0.146E-02   0.267E-06 0.117E-05 -.161E-05
   -.177E+00 -.780E-02 -.408E-01   0.175E+00 0.787E-02 0.400E-01   0.395E-02 -.117E-03 0.146E-02   0.117E-05 0.267E-06 -.161E-05
 -----------------------------------------------------------------------------------------------
   -.150E+00 -.150E+00 -.310E-05   -.546E-13 0.668E-13 -.276E-13   0.150E+00 0.150E+00 0.867E-18   0.606E-05 0.606E-05 -.147E-11
 
 
 POSITION                                       TOTAL-FORCE (eV/Angst)
 -----------------------------------------------------------------------------------
      0.00000      0.00000      0.00000        -0.001521     -0.001521     -0.002551
      2.80100      2.80100      0.00000         0.005013      0.005013      0.000183
      2.80100      0.00000      2.80100         0.005182      0.016277     -0.000000
      0.00000      2.80100      2.80100         0.016277      0.005182     -0.000000
      0.00000      0.00000      5.60200        -0.001521     -0.001521      0.002551
      2.80100      2.80100      5.60200         0.005013      0.005013     -0.000183
      2.80100      0.00000      8.40300         0.000610      0.000153     -0.000000
      0.00000      2.80100      8.40300         0.000153      0.000610     -0.000000
      0.00000      5.60200      0.00000         0.001058      0.001082     -0.000021
      2.80100      8.40300      0.00000         0.000607     -0.002834      0.000005
      2.80100      5.60200      2.80100         0.004795      0.020160     -0.000000
      0.00000      8.40300      2.80100         0.000154     -0.002784     -0.000000
      0.00000      5.60200      5.60200         0.001058      0.001082      0.000021
      2.80100      8.40300      5.60200         0.000607     -0.002834     -0.000005
      2.80100      5.60200      8.40300         0.000605      0.000166     -0.000000
      0.00000      8.40300      8.40300        -0.000001     -0.000671     -0.000000
      5.60200      0.00000      0.00000         0.001082      0.001058     -0.000021
      8.40300      2.80100      0.00000        -0.002834      0.000607      0.000005
      8.40300      0.00000      2.80100        -0.002784      0.000154     -0.000000
      5.60200      2.80100      2.80100         0.020160      0.004795     -0.000000
      5.60200      0.00000      5.60200         0.001082      0.001058      0.000021
      8.40300      2.80100      5.60200        -0.002834      0.000607     -0.000005
      8.40300      0.00000      8.40300        -0.000671     -0.000001     -0.000000
      5.60200      2.80100      8.40300         0.000166      0.000605     -0.000000
      5.60200      5.60200      0.00000        -0.001517     -0.001517      0.002627
      8.40300      8.40300      0.00000        -0.000670     -0.000670      0.000006
      8.40300      5.60200      2.80100        -0.002886      0.000165     -0.000000
      5.60200      8.40300      2.80100         0.000165     -0.002886     -0.000000
      5.60200      5.60200      5.60200        -0.001517     -0.001517     -0.002627
      8.40300      8.40300      5.60200        -0.000670     -0.000670     -0.000006
      8.40300      5.60200      8.40300        -0.000669      0.000003     -0.000000
      5.60200      8.40300      8.40300         0.000003     -0.000669     -0.000000
      2.83100      2.83100      2.80100        -0.075974     -0.075974     -0.000000
      0.00000      0.00000      2.80100         0.009424      0.009424     -0.000000
      0.00000      2.80100      0.00000         0.003890     -0.002300      0.005764
      2.80100      0.00000      0.00000        -0.002300      0.003890      0.005764
      2.80100      2.80100      8.40300        -0.001549     -0.001549     -0.000000
      0.00000      0.00000      8.40300         0.000531      0.000531     -0.000000
      0.00000      2.80100      5.60200         0.003890     -0.002300     -0.005764
      2.80100      0.00000      5.60200        -0.002300      0.003890     -0.005764
      2.80100      8.40300      2.80100        -0.001550      0.003843     -0.000000
      0.00000      5.60200      2.80100        -0.001841     -0.001996     -0.000000
      0.00000      8.40300      0.00000        -0.000041      0.001536      0.000564
      2.80100      5.60200      0.00000        -0.002376      0.003887     -0.005852
      2.80100      8.40300      8.40300        -0.000520      0.001960     -0.000000
      0.00000      5.60200      8.40300        -0.000614     -0.000621     -0.000000
      0.00000      8.40300      5.60200        -0.000041      0.001536     -0.000564
      2.80100      5.60200      5.60200        -0.002376      0.003887      0.005852
      8.40300      2.80100      2.80100         0.003843     -0.001550     -0.000000
      5.60200      0.00000      2.80100        -0.001996     -0.001841     -0.000000
      5.60200      2.80100      0.00000         0.003887     -0.002376     -0.005852
      8.40300      0.00000      0.00000         0.001536     -0.000041      0.000564
      8.40300      2.80100      8.40300         0.001960     -0.000520     -0.000000
      5.60200      0.00000      8.40300        -0.000621     -0.000614     -0.000000
      5.60200      2.80100      5.60200         0.003887     -0.002376      0.005852
      8.40300      0.00000      5.60200         0.001536     -0.000041     -0.000564
      8.40300      8.40300      2.80100         0.001961      0.001961     -0.000000
      5.60200      5.60200      2.80100         0.009991      0.009991     -0.000000
      5.60200      8.40300      0.00000        -0.000050      0.001558     -0.000579
      8.40300      5.60200      0.00000         0.001558     -0.000050     -0.000579
      8.40300      8.40300      8.40300         0.000529      0.000529     -0.000000
      5.60200      5.60200      8.40300         0.000522      0.000522     -0.000000
      5.60200      8.40300      5.60200        -0.000050      0.001558      0.000579
      8.40300      5.60200      5.60200         0.001558     -0.000050      0.000579
 -----------------------------------------------------------------------------------
    total drift:                                0.000198      0.000198     -0.000003


--------------------------------------------------------------------------------------------------------



  FREE ENERGIE OF THE ION-ELECTRON SYSTEM (eV)
  ---------------------------------------------------
  free  energy   TOTEN  =      -223.90042304 eV

  energy  without entropy=     -223.90042304  energy(sigma->0) =     -223.90042304
 


--------------------------------------------------------------------------------------------------------


    POTLOK:  cpu time      0.0688: real time      0.0692


--------------------------------------------------------------------------------------------------------


     LOOP+:  cpu time    187.0671: real time    188.1472
    4ORBIT:  cpu time      0.0000: real time      0.0000

 total amount of memory used by VASP MPI-rank0   118439. kBytes
=======================================================================

   base      :      30000. kBytes
   nonl-proj :      36470. kBytes
   fftplans  :      14405. kBytes
   grid      :      19342. kBytes
   one-center:        196. kBytes
   wavefun   :      18026. kBytes
 
  
  
 General timing and accounting informations for this job:
 ========================================================
  
                  Total CPU time used (sec):      190.474
                            User time (sec):      189.915
                          System time (sec):        0.559
                         Elapsed time (sec):      191.978
  
                   Maximum memory used (kb):      305192.
                   Average memory used (kb):          N/A
  
                          Minor page faults:       120133
                          Major page faults:            0
                 Voluntary context switches:          838
