<?xml version="1.0" encoding="ISO-8859-1"?>
<modeling>
 <generator>
  <i name="program" type="string">vasp </i>
  <i name="version" type="string">6.3.2  </i>
  <i name="subversion" type="string">27Jun22 (build Oct 14 2022 12:13:54) complex                          parallel </i>
  <i name="platform" type="string">LinuxIFC </i>
  <i name="date" type="string">2025 08 28 </i>
  <i name="time" type="string">22:08:21 </i>
 </generator>
 <incar>
  <i type="string" name="PREC">Accurate</i>
  <i type="int" name="IALGO">    38</i>
  <i type="logical" name="ADDGRID"> T  </i>
  <i type="int" name="NELMIN">     5</i>
  <i type="int" name="IBRION">    -1</i>
  <i name="EDIFF">      0.00000001</i>
  <i name="ENCUT">    341.21360000</i>
  <i type="logical" name="LREAL"> F  </i>
  <i type="int" name="ISMEAR">     0</i>
  <i name="SIGMA">      0.02000000</i>
  <i type="logical" name="LWAVE"> F  </i>
  <i type="logical" name="LCHARG"> F  </i>
  <i type="string" name="GGA">PS</i>
 </incar>
 <primitive_cell>
  <structure name="primitive_cell" >
   <crystal>
    <varray name="basis" >
     <v>      11.20400236       0.00000000       0.00000000 </v>
     <v>       0.00000000      11.20400236       0.00000000 </v>
     <v>       0.00000000       0.00000000      11.20400236 </v>
    </varray>
    <i name="volume">   1406.43470641 </i>
    <varray name="rec_basis" >
     <v>       0.08925382       0.00000000       0.00000000 </v>
     <v>       0.00000000       0.08925382       0.00000000 </v>
     <v>       0.00000000       0.00000000       0.08925382 </v>
    </varray>
   </crystal>
   <varray name="positions" >
    <v>       0.00000000       0.00000000       0.00000000 </v>
    <v>       0.25000000       0.25000000       0.00000000 </v>
    <v>       0.25000000       0.00000000       0.25000000 </v>
    <v>       0.00000000       0.25000000       0.25000000 </v>
    <v>       0.00000000       0.00000000       0.50000000 </v>
    <v>       0.25000000       0.25000000       0.50000000 </v>
    <v>       0.25000000       0.00000000       0.75000000 </v>
    <v>       0.00000000       0.25000000       0.75000000 </v>
    <v>       0.00000000       0.50000000       0.00000000 </v>
    <v>       0.25000000       0.75000000       0.00000000 </v>
    <v>       0.25000000       0.50000000       0.25000000 </v>
    <v>       0.00000000       0.75000000       0.25000000 </v>
    <v>       0.00000000       0.50000000       0.50000000 </v>
    <v>       0.25000000       0.75000000       0.50000000 </v>
    <v>       0.25000000       0.50000000       0.75000000 </v>
    <v>       0.00000000       0.75000000       0.75000000 </v>
    <v>       0.50000000       0.00000000       0.00000000 </v>
    <v>       0.75000000       0.25000000       0.00000000 </v>
    <v>       0.75000000       0.00000000       0.25000000 </v>
    <v>       0.50000000       0.25000000       0.25000000 </v>
    <v>       0.50000000       0.00000000       0.50000000 </v>
    <v>       0.75000000       0.25000000       0.50000000 </v>
    <v>       0.75000000       0.00000000       0.75000000 </v>
    <v>       0.50000000       0.25000000       0.75000000 </v>
    <v>       0.50000000       0.50000000       0.00000000 </v>
    <v>       0.75000000       0.75000000       0.00000000 </v>
    <v>       0.75000000       0.50000000       0.25000000 </v>
    <v>       0.50000000       0.75000000       0.25000000 </v>
    <v>       0.50000000       0.50000000       0.50000000 </v>
    <v>       0.75000000       0.75000000       0.50000000 </v>
    <v>       0.75000000       0.50000000       0.75000000 </v>
    <v>       0.50000000       0.75000000       0.75000000 </v>
    <v>       0.25267761       0.25267761       0.25000000 </v>
    <v>       0.00000000       0.00000000       0.25000000 </v>
    <v>       0.00000000       0.25000000       0.00000000 </v>
    <v>       0.25000000       0.00000000       0.00000000 </v>
    <v>       0.25000000       0.25000000       0.75000000 </v>
    <v>       0.00000000       0.00000000       0.75000000 </v>
    <v>       0.00000000       0.25000000       0.50000000 </v>
    <v>       0.25000000       0.00000000       0.50000000 </v>
    <v>       0.25000000       0.75000000       0.25000000 </v>
    <v>       0.00000000       0.50000000       0.25000000 </v>
    <v>       0.00000000       0.75000000       0.00000000 </v>
    <v>       0.25000000       0.50000000       0.00000000 </v>
    <v>       0.25000000       0.75000000       0.75000000 </v>
    <v>       0.00000000       0.50000000       0.75000000 </v>
    <v>       0.00000000       0.75000000       0.50000000 </v>
    <v>       0.25000000       0.50000000       0.50000000 </v>
    <v>       0.75000000       0.25000000       0.25000000 </v>
    <v>       0.50000000       0.00000000       0.25000000 </v>
    <v>       0.50000000       0.25000000       0.00000000 </v>
    <v>       0.75000000       0.00000000       0.00000000 </v>
    <v>       0.75000000       0.25000000       0.75000000 </v>
    <v>       0.50000000       0.00000000       0.75000000 </v>
    <v>       0.50000000       0.25000000       0.50000000 </v>
    <v>       0.75000000       0.00000000       0.50000000 </v>
    <v>       0.75000000       0.75000000       0.25000000 </v>
    <v>       0.50000000       0.50000000       0.25000000 </v>
    <v>       0.50000000       0.75000000       0.00000000 </v>
    <v>       0.75000000       0.50000000       0.00000000 </v>
    <v>       0.75000000       0.75000000       0.75000000 </v>
    <v>       0.50000000       0.50000000       0.75000000 </v>
    <v>       0.50000000       0.75000000       0.50000000 </v>
    <v>       0.75000000       0.50000000       0.50000000 </v>
   </varray>
  </structure>
  <varray name="primitive_index" >
   <v type="int" >        1 </v>
   <v type="int" >        2 </v>
   <v type="int" >        3 </v>
   <v type="int" >        4 </v>
   <v type="int" >        5 </v>
   <v type="int" >        6 </v>
   <v type="int" >        7 </v>
   <v type="int" >        8 </v>
   <v type="int" >        9 </v>
   <v type="int" >       10 </v>
   <v type="int" >       11 </v>
   <v type="int" >       12 </v>
   <v type="int" >       13 </v>
   <v type="int" >       14 </v>
   <v type="int" >       15 </v>
   <v type="int" >       16 </v>
   <v type="int" >       17 </v>
   <v type="int" >       18 </v>
   <v type="int" >       19 </v>
   <v type="int" >       20 </v>
   <v type="int" >       21 </v>
   <v type="int" >       22 </v>
   <v type="int" >       23 </v>
   <v type="int" >       24 </v>
   <v type="int" >       25 </v>
   <v type="int" >       26 </v>
   <v type="int" >       27 </v>
   <v type="int" >       28 </v>
   <v type="int" >       29 </v>
   <v type="int" >       30 </v>
   <v type="int" >       31 </v>
   <v type="int" >       32 </v>
   <v type="int" >       33 </v>
   <v type="int" >       34 </v>
   <v type="int" >       35 </v>
   <v type="int" >       36 </v>
   <v type="int" >       37 </v>
   <v type="int" >       38 </v>
   <v type="int" >       39 </v>
   <v type="int" >       40 </v>
   <v type="int" >       41 </v>
   <v type="int" >       42 </v>
   <v type="int" >       43 </v>
   <v type="int" >       44 </v>
   <v type="int" >       45 </v>
   <v type="int" >       46 </v>
   <v type="int" >       47 </v>
   <v type="int" >       48 </v>
   <v type="int" >       49 </v>
   <v type="int" >       50 </v>
   <v type="int" >       51 </v>
   <v type="int" >       52 </v>
   <v type="int" >       53 </v>
   <v type="int" >       54 </v>
   <v type="int" >       55 </v>
   <v type="int" >       56 </v>
   <v type="int" >       57 </v>
   <v type="int" >       58 </v>
   <v type="int" >       59 </v>
   <v type="int" >       60 </v>
   <v type="int" >       61 </v>
   <v type="int" >       62 </v>
   <v type="int" >       63 </v>
   <v type="int" >       64 </v>
  </varray>
 </primitive_cell>
 <kpoints>
  <generation param="Gamma">
   <v type="int" name="divisions">       2        2        2 </v>
   <v name="usershift">      0.00000000       0.00000000       0.00000000 </v>
   <v name="genvec1">      0.50000000       0.00000000       0.00000000 </v>
   <v name="genvec2">      0.00000000       0.50000000       0.00000000 </v>
   <v name="genvec3">      0.00000000       0.00000000       0.50000000 </v>
   <v name="shift">      0.00000000       0.00000000       0.00000000 </v>
  </generation>
  <varray name="kpointlist" >
   <v>       0.00000000       0.00000000       0.00000000 </v>
   <v>       0.50000000       0.00000000       0.00000000 </v>
   <v>       0.00000000       0.00000000       0.50000000 </v>
   <v>       0.50000000       0.50000000       0.00000000 </v>
   <v>       0.00000000       0.50000000       0.50000000 </v>
   <v>       0.50000000       0.50000000       0.50000000 </v>
  </varray>
  <varray name="weights" >
   <v>       0.12500000 </v>
   <v>       0.25000000 </v>
   <v>       0.12500000 </v>
   <v>       0.12500000 </v>
   <v>       0.25000000 </v>
   <v>       0.12500000 </v>
  </varray>
 </kpoints>
 <parameters>
  <separator name="general" >
   <i type="string" name="SYSTEM">unknown system</i>
   <i type="logical" name="LCOMPAT"> F  </i>
  </separator>
  <separator name="electronic" >
   <i type="string" name="PREC">accura</i>
   <i name="ENMAX">    341.21360000</i>
   <i name="ENAUG">    368.05600000</i>
   <i name="EDIFF">      0.00000001</i>
   <i type="int" name="IALGO">    38</i>
   <i type="int" name="IWAVPR">    10</i>
   <i type="int" name="NBANDS">   288</i>
   <i type="int" name="NBANDSLOW">    -1</i>
   <i type="int" name="NBANDSHIGH">    -1</i>
   <i name="NELECT">    448.00000000</i>
   <i type="int" name="TURBO">     0</i>
   <i type="int" name="IRESTART">     0</i>
   <i type="int" name="NREBOOT">     0</i>
   <i type="int" name="NMIN">     0</i>
   <i name="EREF">      0.00000000</i>
   <separator name="electronic smearing" >
    <i type="int" name="ISMEAR">     0</i>
    <i name="SIGMA">      0.02000000</i>
    <i name="KSPACING">      0.50000000</i>
    <i type="logical" name="KGAMMA"> T  </i>
    <i type="logical" name="KBLOWUP"> T  </i>
   </separator>
   <separator name="electronic projectors" >
    <i type="logical" name="LREAL"> F  </i>
    <v name="ROPT">      0.00000000      0.00000000</v>
    <i type="int" name="LMAXPAW">  -100</i>
    <i type="int" name="LMAXMIX">     2</i>
    <i type="logical" name="NLSPLINE"> F  </i>
   </separator>
   <separator name="electronic startup" >
    <i type="int" name="ISTART">     0</i>
    <i type="int" name="ICHARG">     2</i>
    <i type="int" name="INIWAV">     1</i>
   </separator>
   <separator name="electronic spin" >
    <i type="int" name="ISPIN">     1</i>
    <i type="logical" name="LNONCOLLINEAR"> F  </i>
    <v name="MAGMOM">      1.00000000      1.00000000      1.00000000      1.00000000      1.00000000      1.00000000      1.00000000      1.00000000      1.00000000      1.00000000      1.00000000      1.00000000      1.00000000      1.00000000      1.00000000      1.00000000      1.00000000      1.00000000      1.00000000      1.00000000
      1.00000000      1.00000000      1.00000000      1.00000000      1.00000000      1.00000000      1.00000000      1.00000000      1.00000000      1.00000000      1.00000000      1.00000000      1.00000000      1.00000000      1.00000000      1.00000000      1.00000000      1.00000000      1.00000000      1.00000000
      1.00000000      1.00000000      1.00000000      1.00000000      1.00000000      1.00000000      1.00000000      1.00000000      1.00000000      1.00000000      1.00000000      1.00000000      1.00000000      1.00000000      1.00000000      1.00000000      1.00000000      1.00000000      1.00000000      1.00000000
      1.00000000      1.00000000      1.00000000      1.00000000</v>
    <i name="NUPDOWN">     -1.00000000</i>
    <i type="logical" name="LSORBIT"> F  </i>
    <v name="SAXIS">      0.00000000      0.00000000      1.00000000</v>
    <i type="logical" name="LSPIRAL"> F  </i>
    <v name="QSPIRAL">      0.00000000      0.00000000      0.00000000</v>
    <i type="logical" name="LZEROZ"> F  </i>
   </separator>
   <separator name="electronic exchange-correlation" >
    <i type="logical" name="LASPH"> F  </i>
    <i type="logical" name="LMETAGGA"> F  </i>
   </separator>
   <separator name="electronic convergence" >
    <i type="int" name="NELM">    60</i>
    <i type="int" name="NELMDL">    -5</i>
    <i type="int" name="NELMIN">     5</i>
    <i name="ENINI">    341.21360000</i>
    <separator name="electronic convergence detail" >
     <i type="logical" name="LDIAG"> T  </i>
     <i type="logical" name="LSUBROT"> F  </i>
     <i name="WEIMIN">      0.00000000</i>
     <i name="EBREAK">      0.00000000</i>
     <i name="DEPER">      0.30000000</i>
     <i type="int" name="NRMM">     4</i>
     <i name="TIME">      0.40000000</i>
    </separator>
   </separator>
   <separator name="electronic mixer" >
    <i name="AMIX">      0.40000000</i>
    <i name="BMIX">      1.00000000</i>
    <i name="AMIN">      0.10000000</i>
    <i name="AMIX_MAG">      1.60000000</i>
    <i name="BMIX_MAG">      1.00000000</i>
    <separator name="electronic mixer details" >
     <i type="int" name="IMIX">     4</i>
     <i type="logical" name="MIXFIRST"> F  </i>
     <i type="int" name="MAXMIX">   -45</i>
     <i name="WC">    100.00000000</i>
     <i type="int" name="INIMIX">     1</i>
     <i type="int" name="MIXPRE">     1</i>
     <i type="int" name="MREMOVE">     5</i>
    </separator>
   </separator>
   <separator name="electronic dipolcorrection" >
    <i type="logical" name="LDIPOL"> F  </i>
    <i type="logical" name="LMONO"> F  </i>
    <i type="int" name="IDIPOL">     0</i>
    <i name="EPSILON">      1.00000000</i>
    <v name="DIPOL">   -100.00000000   -100.00000000   -100.00000000</v>
    <i name="EFIELD">      0.00000000</i>
   </separator>
  </separator>
  <separator name="grids" >
   <i type="int" name="NGX">    70</i>
   <i type="int" name="NGY">    70</i>
   <i type="int" name="NGZ">    70</i>
   <i type="int" name="NGXF">   140</i>
   <i type="int" name="NGYF">   140</i>
   <i type="int" name="NGZF">   140</i>
   <i type="logical" name="ADDGRID"> T  </i>
  </separator>
  <separator name="ionic" >
   <i type="int" name="NSW">     0</i>
   <i type="int" name="IBRION">    -1</i>
   <i type="int" name="MDALGO">     0</i>
   <i type="int" name="ISIF">     2</i>
   <i name="PSTRESS">      0.00000000</i>
   <i name="EDIFFG">      0.00000010</i>
   <i type="int" name="NFREE">     0</i>
   <i name="POTIM">      0.50000000</i>
   <i name="SMASS">     -3.00000000</i>
   <i name="SCALEE">      1.00000000</i>
  </separator>
  <separator name="ionic md" >
   <i name="TEBEG">      0.00010000</i>
   <i name="TEEND">      0.00010000</i>
   <i type="int" name="NBLOCK">     1</i>
   <i type="int" name="KBLOCK">     1</i>
   <i type="int" name="NPACO">   256</i>
   <i name="APACO">     10.00000000</i>
  </separator>
  <separator name="symmetry" >
   <i type="int" name="ISYM">     2</i>
   <i name="SYMPREC">      0.00001000</i>
  </separator>
  <separator name="dos" >
   <i type="int" name="LORBIT">     0</i>
   <v name="RWIGS">     -1.00000000     -1.00000000</v>
   <i type="int" name="NEDOS">   301</i>
   <i name="EMIN">     10.00000000</i>
   <i name="EMAX">    -10.00000000</i>
   <i name="EFERMI">      0.00000000</i>
  </separator>
  <separator name="writing" >
   <i type="int" name="NWRITE">     2</i>
   <i type="logical" name="LWAVE"> F  </i>
   <i type="logical" name="LDOWNSAMPLE"> F  </i>
   <i type="logical" name="LCHARG"> F  </i>
   <i type="logical" name="LPARD"> F  </i>
   <i type="logical" name="LVTOT"> F  </i>
   <i type="logical" name="LVHAR"> F  </i>
   <i type="logical" name="LELF"> F  </i>
   <i type="logical" name="LOPTICS"> F  </i>
   <v name="STM">      0.00000000      0.00000000      0.00000000      0.00000000      0.00000000      0.00000000      0.00000000</v>
  </separator>
  <separator name="performance" >
   <i type="int" name="NPAR">    32</i>
   <i type="int" name="NSIM">     4</i>
   <i type="int" name="NBLK">    -1</i>
   <i type="logical" name="LPLANE"> T  </i>
   <i type="logical" name="LSCALAPACK"> T  </i>
   <i type="logical" name="LSCAAWARE"> F  </i>
   <i type="logical" name="LSCALU"> F  </i>
   <i type="logical" name="LASYNC"> F  </i>
   <i type="logical" name="LORBITALREAL"> F  </i>
  </separator>
  <separator name="miscellaneous" >
   <i type="int" name="IDIOT">     3</i>
   <i type="int" name="PHON_NSTRUCT">    -1</i>
   <i type="logical" name="LMUSIC"> F  </i>
   <v name="POMASS">     22.99000000     35.45300000</v>
   <v name="DARWINR">      0.00000000      0.00000000</v>
   <v name="DARWINV">      1.00000000      1.00000000</v>
   <i type="logical" name="LCORR"> T  </i>
  </separator>
  <i type="logical" name="GGA_COMPAT"> T  </i>
  <i type="logical" name="LBERRY"> F  </i>
  <i type="int" name="ICORELEVEL">     0</i>
  <i type="logical" name="LDAU"> F  </i>
  <i type="int" name="I_CONSTRAINED_M">     0</i>
  <separator name="electronic exchange-correlation" >
   <i type="string" name="GGA">PS</i>
   <i type="int" name="VOSKOWN">     0</i>
   <i type="logical" name="LHFCALC"> F  </i>
   <i type="string" name="PRECFOCK"></i>
   <i type="logical" name="LSYMGRAD"> F  </i>
   <i type="logical" name="LHFONE"> F  </i>
   <i type="logical" name="LRHFCALC"> F  </i>
   <i type="logical" name="LTHOMAS"> F  </i>
   <i type="logical" name="LMODELHF"> F  </i>
   <i type="logical" name="LFOCKACE"> F  </i>
   <i name="ENCUT4O">     -1.00000000</i>
   <i type="int" name="EXXOEP">     0</i>
   <i type="int" name="FOURORBIT">     0</i>
   <i name="AEXX">      0.00000000</i>
   <i name="HFALPHA">      0.00000000</i>
   <i name="MCALPHA">      0.00000000</i>
   <i name="ALDAX">      1.00000000</i>
   <i name="AGGAX">      1.00000000</i>
   <i name="ALDAC">      1.00000000</i>
   <i name="AGGAC">      1.00000000</i>
   <i type="int" name="NKREDX">     1</i>
   <i type="int" name="NKREDY">     1</i>
   <i type="int" name="NKREDZ">     1</i>
   <i type="logical" name="SHIFTRED"> F  </i>
   <i type="logical" name="ODDONLY"> F  </i>
   <i type="logical" name="EVENONLY"> F  </i>
   <i type="int" name="LMAXFOCK">     0</i>
   <i type="int" name="NMAXFOCKAE">     0</i>
   <i type="logical" name="LFOCKAEDFT"> F  </i>
   <i name="HFSCREEN">      0.00000000</i>
   <i name="HFSCREENC">      0.00000000</i>
   <i type="int" name="NBANDSGWLOW">     0</i>
  </separator>
  <separator name="vdW DFT" >
   <i type="logical" name="LUSE_VDW"> F  </i>
   <i name="Zab_VDW">     -0.84910000</i>
   <i name="PARAM1">      0.12340000</i>
   <i name="PARAM2">      1.00000000</i>
   <i name="PARAM3">      0.00000000</i>
  </separator>
  <separator name="model GW" >
   <i type="int" name="MODEL_GW">     0</i>
   <i name="MODEL_EPS0">     13.18532537</i>
   <i name="MODEL_ALPHA">      1.00000000</i>
  </separator>
  <separator name="linear response parameters" >
   <i type="logical" name="LEPSILON"> F  </i>
   <i type="logical" name="LRPA"> F  </i>
   <i type="logical" name="LNABLA"> F  </i>
   <i type="logical" name="LVEL"> F  </i>
   <i name="CSHIFT">      0.10000000</i>
   <i name="OMEGAMAX">     -1.00000000</i>
   <i name="DEG_THRESHOLD">      0.00200000</i>
   <i name="RTIME">     -0.10000000</i>
   <i name="WPLASMAI">      0.00000000</i>
   <v name="DFIELD">      0.00000000      0.00000000      0.00000000</v>
   <v name="WPLASMA">      0.00000000      0.00000000      0.00000000      0.00000000      0.00000000      0.00000000      0.00000000      0.00000000      0.00000000</v>
  </separator>
  <separator name="orbital magnetization" >
   <i type="logical" name="NUCIND"> F  </i>
   <v name="MAGPOS">      0.00000000      0.00000000      0.00000000</v>
   <i type="logical" name="LNICSALL"> T  </i>
   <i type="logical" name="ORBITALMAG"> F  </i>
   <i type="logical" name="LMAGBLOCH"> F  </i>
   <i type="logical" name="LCHIMAG"> F  </i>
   <i type="logical" name="LGAUGE"> T  </i>
   <i type="int" name="MAGATOM">     0</i>
   <v name="MAGDIPOL">      0.00000000      0.00000000      0.00000000</v>
   <v name="AVECCONST">      0.00000000      0.00000000      0.00000000</v>
  </separator>
  <separator name="response functions" >
   <i type="logical" name="LFINITE_TEMPERATURE"> F  </i>
   <i type="logical" name="LADDER"> F  </i>
   <i type="logical" name="LRPAFORCE"> F  </i>
   <i type="logical" name="LFXC"> F  </i>
   <i type="logical" name="LHARTREE"> T  </i>
   <i type="int" name="IBSE">     0</i>
   <v type="int" name="KPOINT">    -1     0     0     0</v>
   <i type="logical" name="LTCTC"> F  </i>
   <i type="logical" name="LTCTE"> F  </i>
   <i type="logical" name="LTETE"> F  </i>
   <i type="logical" name="LTRIPLET"> F  </i>
   <i type="logical" name="LFXCEPS"> F  </i>
   <i type="logical" name="LFXHEG"> F  </i>
   <i type="int" name="NATURALO">     2</i>
   <i type="logical" name="LHOLEGF"> F  </i>
   <i type="logical" name="L2ORDER"> F  </i>
   <i type="logical" name="LDMP1"> F  </i>
   <i type="logical" name="LMP2LT"> F  </i>
   <i type="logical" name="LSMP2LT"> F  </i>
   <i type="logical" name="LGWLF"> F  </i>
   <i name="ENCUTGW">     -2.00000000</i>
   <i name="ENCUTGWSOFT">     -2.00000000</i>
   <i name="ENCUTLF">     -1.00000000</i>
   <i type="logical" name="LESF_SPLINES"> F  </i>
   <i type="int" name="LMAXMP2">    -1</i>
   <i name="SCISSOR">      0.00000000</i>
   <i type="int" name="NOMEGA">     0</i>
   <i type="int" name="NOMEGAR">     0</i>
   <i type="int" name="NBANDSGW">    -1</i>
   <i type="int" name="NBANDSO">    -1</i>
   <i type="int" name="NBANDSV">    -1</i>
   <i type="int" name="NELMGW">     1</i>
   <i type="int" name="NELMHF">     1</i>
   <i type="int" name="DIM">     3</i>
   <i type="int" name="IESPILON">     4</i>
   <i type="int" name="ANTIRES">     0</i>
   <i name="OMEGAMAX">    -30.00000000</i>
   <i name="OMEGAMIN">    -30.00000000</i>
   <i name="OMEGATL">   -200.00000000</i>
   <i type="int" name="OMEGAGRID">     0</i>
   <i name="CSHIFT">     -0.10000000</i>
   <i type="logical" name="LSELFENERGY"> F  </i>
   <i type="logical" name="LSPECTRAL"> F  </i>
   <i type="logical" name="LSPECTRALGW"> F  </i>
   <i type="logical" name="LSINGLES"> F  </i>
   <i type="logical" name="LFERMIGW"> F  </i>
   <i type="logical" name="ODDONLYGW"> F  </i>
   <i type="logical" name="EVENONLYGW"> F  </i>
   <i type="int" name="NKREDLFX">     1</i>
   <i type="int" name="NKREDLFY">     1</i>
   <i type="int" name="NKREDLFZ">     1</i>
   <i type="int" name="MAXMEM">  2800</i>
   <i type="int" name="TELESCOPE">     0</i>
   <i type="int" name="NTAUPAR">    -1</i>
   <i type="int" name="NOMEGAPAR">    -1</i>
   <i name="DAMP_NEWTON">      0.80000001</i>
   <i name="LAMBDA">      1.00000000</i>
  </separator>
  <separator name="External order field" >
   <i name="OFIELD_KAPPA">      0.00000000</i>
   <v name="OFIELD_K">      0.00000000      0.00000000      0.00000000</v>
   <i name="OFIELD_Q6_NEAR">      0.00000000</i>
   <i name="OFIELD_Q6_FAR">      0.00000000</i>
   <i name="OFIELD_A">      0.00000000</i>
  </separator>
  <separator name="optional k-points parameters" >
   <i type="int" name="KPOINTS_OPT_MODE">     1</i>
   <i type="logical" name="LKPOINTS_OPT"> F  </i>
  </separator>
 </parameters>
 <atominfo>
  <atoms>      64 </atoms>
  <types>       2 </types>
  <array name="atoms" >
   <dimension dim="1">ion</dimension>
   <field type="string">element</field>
   <field type="int">atomtype</field>
   <set>
    <rc><c>Na</c><c>   1</c></rc>
    <rc><c>Na</c><c>   1</c></rc>
    <rc><c>Na</c><c>   1</c></rc>
    <rc><c>Na</c><c>   1</c></rc>
    <rc><c>Na</c><c>   1</c></rc>
    <rc><c>Na</c><c>   1</c></rc>
    <rc><c>Na</c><c>   1</c></rc>
    <rc><c>Na</c><c>   1</c></rc>
    <rc><c>Na</c><c>   1</c></rc>
    <rc><c>Na</c><c>   1</c></rc>
    <rc><c>Na</c><c>   1</c></rc>
    <rc><c>Na</c><c>   1</c></rc>
    <rc><c>Na</c><c>   1</c></rc>
    <rc><c>Na</c><c>   1</c></rc>
    <rc><c>Na</c><c>   1</c></rc>
    <rc><c>Na</c><c>   1</c></rc>
    <rc><c>Na</c><c>   1</c></rc>
    <rc><c>Na</c><c>   1</c></rc>
    <rc><c>Na</c><c>   1</c></rc>
    <rc><c>Na</c><c>   1</c></rc>
    <rc><c>Na</c><c>   1</c></rc>
    <rc><c>Na</c><c>   1</c></rc>
    <rc><c>Na</c><c>   1</c></rc>
    <rc><c>Na</c><c>   1</c></rc>
    <rc><c>Na</c><c>   1</c></rc>
    <rc><c>Na</c><c>   1</c></rc>
    <rc><c>Na</c><c>   1</c></rc>
    <rc><c>Na</c><c>   1</c></rc>
    <rc><c>Na</c><c>   1</c></rc>
    <rc><c>Na</c><c>   1</c></rc>
    <rc><c>Na</c><c>   1</c></rc>
    <rc><c>Na</c><c>   1</c></rc>
    <rc><c>Cl</c><c>   2</c></rc>
    <rc><c>Cl</c><c>   2</c></rc>
    <rc><c>Cl</c><c>   2</c></rc>
    <rc><c>Cl</c><c>   2</c></rc>
    <rc><c>Cl</c><c>   2</c></rc>
    <rc><c>Cl</c><c>   2</c></rc>
    <rc><c>Cl</c><c>   2</c></rc>
    <rc><c>Cl</c><c>   2</c></rc>
    <rc><c>Cl</c><c>   2</c></rc>
    <rc><c>Cl</c><c>   2</c></rc>
    <rc><c>Cl</c><c>   2</c></rc>
    <rc><c>Cl</c><c>   2</c></rc>
    <rc><c>Cl</c><c>   2</c></rc>
    <rc><c>Cl</c><c>   2</c></rc>
    <rc><c>Cl</c><c>   2</c></rc>
    <rc><c>Cl</c><c>   2</c></rc>
    <rc><c>Cl</c><c>   2</c></rc>
    <rc><c>Cl</c><c>   2</c></rc>
    <rc><c>Cl</c><c>   2</c></rc>
    <rc><c>Cl</c><c>   2</c></rc>
    <rc><c>Cl</c><c>   2</c></rc>
    <rc><c>Cl</c><c>   2</c></rc>
    <rc><c>Cl</c><c>   2</c></rc>
    <rc><c>Cl</c><c>   2</c></rc>
    <rc><c>Cl</c><c>   2</c></rc>
    <rc><c>Cl</c><c>   2</c></rc>
    <rc><c>Cl</c><c>   2</c></rc>
    <rc><c>Cl</c><c>   2</c></rc>
    <rc><c>Cl</c><c>   2</c></rc>
    <rc><c>Cl</c><c>   2</c></rc>
    <rc><c>Cl</c><c>   2</c></rc>
    <rc><c>Cl</c><c>   2</c></rc>
   </set>
  </array>
  <array name="atomtypes" >
   <dimension dim="1">type</dimension>
   <field type="int">atomspertype</field>
   <field type="string">element</field>
   <field>mass</field>
   <field>valence</field>
   <field type="string">pseudopotential</field>
   <set>
    <rc><c>  32</c><c>Na</c><c>     22.99000000</c><c>      7.00000000</c><c>  PAW_PBE Na_pv 19Sep2006               </c></rc>
    <rc><c>  32</c><c>Cl</c><c>     35.45300000</c><c>      7.00000000</c><c>  PAW_PBE Cl 06Sep2000                  </c></rc>
   </set>
  </array>
 </atominfo>
 <structure name="initialpos" >
  <crystal>
   <varray name="basis" >
    <v>      11.20400236       0.00000000       0.00000000 </v>
    <v>       0.00000000      11.20400236       0.00000000 </v>
    <v>       0.00000000       0.00000000      11.20400236 </v>
   </varray>
   <i name="volume">   1406.43470641 </i>
   <varray name="rec_basis" >
    <v>       0.08925382       0.00000000       0.00000000 </v>
    <v>       0.00000000       0.08925382       0.00000000 </v>
    <v>       0.00000000       0.00000000       0.08925382 </v>
   </varray>
  </crystal>
  <varray name="positions" >
   <v>       0.00000000       0.00000000       0.00000000 </v>
   <v>       0.25000000       0.25000000       0.00000000 </v>
   <v>       0.25000000       0.00000000       0.25000000 </v>
   <v>       0.00000000       0.25000000       0.25000000 </v>
   <v>       0.00000000       0.00000000       0.50000000 </v>
   <v>       0.25000000       0.25000000       0.50000000 </v>
   <v>       0.25000000       0.00000000       0.75000000 </v>
   <v>       0.00000000       0.25000000       0.75000000 </v>
   <v>       0.00000000       0.50000000       0.00000000 </v>
   <v>       0.25000000       0.75000000       0.00000000 </v>
   <v>       0.25000000       0.50000000       0.25000000 </v>
   <v>       0.00000000       0.75000000       0.25000000 </v>
   <v>       0.00000000       0.50000000       0.50000000 </v>
   <v>       0.25000000       0.75000000       0.50000000 </v>
   <v>       0.25000000       0.50000000       0.75000000 </v>
   <v>       0.00000000       0.75000000       0.75000000 </v>
   <v>       0.50000000       0.00000000       0.00000000 </v>
   <v>       0.75000000       0.25000000       0.00000000 </v>
   <v>       0.75000000       0.00000000       0.25000000 </v>
   <v>       0.50000000       0.25000000       0.25000000 </v>
   <v>       0.50000000       0.00000000       0.50000000 </v>
   <v>       0.75000000       0.25000000       0.50000000 </v>
   <v>       0.75000000       0.00000000       0.75000000 </v>
   <v>       0.50000000       0.25000000       0.75000000 </v>
   <v>       0.50000000       0.50000000       0.00000000 </v>
   <v>       0.75000000       0.75000000       0.00000000 </v>
   <v>       0.75000000       0.50000000       0.25000000 </v>
   <v>       0.50000000       0.75000000       0.25000000 </v>
   <v>       0.50000000       0.50000000       0.50000000 </v>
   <v>       0.75000000       0.75000000       0.50000000 </v>
   <v>       0.75000000       0.50000000       0.75000000 </v>
   <v>       0.50000000       0.75000000       0.75000000 </v>
   <v>       0.25267761       0.25267761       0.25000000 </v>
   <v>       0.00000000       0.00000000       0.25000000 </v>
   <v>       0.00000000       0.25000000       0.00000000 </v>
   <v>       0.25000000       0.00000000       0.00000000 </v>
   <v>       0.25000000       0.25000000       0.75000000 </v>
   <v>       0.00000000       0.00000000       0.75000000 </v>
   <v>       0.00000000       0.25000000       0.50000000 </v>
   <v>       0.25000000       0.00000000       0.50000000 </v>
   <v>       0.25000000       0.75000000       0.25000000 </v>
   <v>       0.00000000       0.50000000       0.25000000 </v>
   <v>       0.00000000       0.75000000       0.00000000 </v>
   <v>       0.25000000       0.50000000       0.00000000 </v>
   <v>       0.25000000       0.75000000       0.75000000 </v>
   <v>       0.00000000       0.50000000       0.75000000 </v>
   <v>       0.00000000       0.75000000       0.50000000 </v>
   <v>       0.25000000       0.50000000       0.50000000 </v>
   <v>       0.75000000       0.25000000       0.25000000 </v>
   <v>       0.50000000       0.00000000       0.25000000 </v>
   <v>       0.50000000       0.25000000       0.00000000 </v>
   <v>       0.75000000       0.00000000       0.00000000 </v>
   <v>       0.75000000       0.25000000       0.75000000 </v>
   <v>       0.50000000       0.00000000       0.75000000 </v>
   <v>       0.50000000       0.25000000       0.50000000 </v>
   <v>       0.75000000       0.00000000       0.50000000 </v>
   <v>       0.75000000       0.75000000       0.25000000 </v>
   <v>       0.50000000       0.50000000       0.25000000 </v>
   <v>       0.50000000       0.75000000       0.00000000 </v>
   <v>       0.75000000       0.50000000       0.00000000 </v>
   <v>       0.75000000       0.75000000       0.75000000 </v>
   <v>       0.50000000       0.50000000       0.75000000 </v>
   <v>       0.50000000       0.75000000       0.50000000 </v>
   <v>       0.75000000       0.50000000       0.50000000 </v>
  </varray>
 </structure>
 <calculation>
  <scstep>
   <time name="dav">    7.39    7.44</time>
   <time name="total">    7.47    7.51</time>
   <energy>
    <i name="alphaZ">    751.52672365 </i>
    <i name="ewald"> -22871.34026991 </i>
    <i name="hartreedc">  -8992.24807945 </i>
    <i name="XCdc">   1456.53429222 </i>
    <i name="pawpsdc">  26466.43774078 </i>
    <i name="pawaedc"> -29286.08056155 </i>
    <i name="eentropy">     -0.00019274 </i>
    <i name="bandstr">   -670.24645440 </i>
    <i name="atom">  37532.17946992 </i>
    <i name="e_fr_energy">   4386.76266852 </i>
    <i name="e_wo_entrp">   4386.76286126 </i>
    <i name="e_0_energy">   4386.76276489 </i>
   </energy>
  </scstep>
  <scstep>
   <time name="dav">    7.77    7.82</time>
   <time name="total">    7.77    7.82</time>
   <energy>
    <i name="e_fr_energy">    364.32533646 </i>
    <i name="e_wo_entrp">    364.32533646 </i>
    <i name="e_0_energy">    364.32533646 </i>
   </energy>
  </scstep>
  <scstep>
   <time name="dav">    8.25    8.30</time>
   <time name="total">    8.25    8.30</time>
   <energy>
    <i name="e_fr_energy">   -205.08473366 </i>
    <i name="e_wo_entrp">   -205.08473366 </i>
    <i name="e_0_energy">   -205.08473366 </i>
   </energy>
  </scstep>
  <scstep>
   <time name="dav">    8.26    8.31</time>
   <time name="total">    8.26    8.31</time>
   <energy>
    <i name="e_fr_energy">   -228.13653651 </i>
    <i name="e_wo_entrp">   -228.13653651 </i>
    <i name="e_0_energy">   -228.13653651 </i>
   </energy>
  </scstep>
  <scstep>
   <time name="dav">    8.81    8.86</time>
   <time name="total">    9.08    9.13</time>
   <energy>
    <i name="e_fr_energy">   -229.00724073 </i>
    <i name="e_wo_entrp">   -229.00724073 </i>
    <i name="e_0_energy">   -229.00724073 </i>
   </energy>
  </scstep>
  <scstep>
   <time name="dav">    8.40    8.44</time>
   <time name="total">    8.73    8.78</time>
   <energy>
    <i name="e_fr_energy">   -224.13635796 </i>
    <i name="e_wo_entrp">   -224.13635796 </i>
    <i name="e_0_energy">   -224.13635796 </i>
   </energy>
  </scstep>
  <scstep>
   <time name="dav">    9.17    9.22</time>
   <time name="total">    9.51    9.56</time>
   <energy>
    <i name="e_fr_energy">   -223.77717520 </i>
    <i name="e_wo_entrp">   -223.77717520 </i>
    <i name="e_0_energy">   -223.77717520 </i>
   </energy>
  </scstep>
  <scstep>
   <time name="dav">    8.07    8.11</time>
   <time name="total">    8.41    8.46</time>
   <energy>
    <i name="e_fr_energy">   -223.90243544 </i>
    <i name="e_wo_entrp">   -223.90243544 </i>
    <i name="e_0_energy">   -223.90243544 </i>
   </energy>
  </scstep>
  <scstep>
   <time name="dav">    8.40    8.45</time>
   <time name="total">    8.75    8.80</time>
   <energy>
    <i name="e_fr_energy">   -223.89696910 </i>
    <i name="e_wo_entrp">   -223.89696910 </i>
    <i name="e_0_energy">   -223.89696910 </i>
   </energy>
  </scstep>
  <scstep>
   <time name="dav">    8.22    8.27</time>
   <time name="total">    8.56    8.61</time>
   <energy>
    <i name="e_fr_energy">   -223.90115204 </i>
    <i name="e_wo_entrp">   -223.90115204 </i>
    <i name="e_0_energy">   -223.90115204 </i>
   </energy>
  </scstep>
  <scstep>
   <time name="dav">    8.92    8.97</time>
   <time name="total">    9.26    9.31</time>
   <energy>
    <i name="e_fr_energy">   -223.90046228 </i>
    <i name="e_wo_entrp">   -223.90046228 </i>
    <i name="e_0_energy">   -223.90046228 </i>
   </energy>
  </scstep>
  <scstep>
   <time name="dav">    8.72    8.77</time>
   <time name="total">    9.06    9.11</time>
   <energy>
    <i name="e_fr_energy">   -223.90042567 </i>
    <i name="e_wo_entrp">   -223.90042567 </i>
    <i name="e_0_energy">   -223.90042567 </i>
   </energy>
  </scstep>
  <scstep>
   <time name="dav">    8.41    8.46</time>
   <time name="total">    8.75    8.80</time>
   <energy>
    <i name="e_fr_energy">   -223.90041950 </i>
    <i name="e_wo_entrp">   -223.90041950 </i>
    <i name="e_0_energy">   -223.90041950 </i>
   </energy>
  </scstep>
  <scstep>
   <time name="dav">    8.11    8.16</time>
   <time name="total">    8.45    8.50</time>
   <energy>
    <i name="e_fr_energy">   -223.90042148 </i>
    <i name="e_wo_entrp">   -223.90042148 </i>
    <i name="e_0_energy">   -223.90042148 </i>
   </energy>
  </scstep>
  <scstep>
   <time name="dav">    8.97    9.02</time>
   <time name="total">    9.31    9.36</time>
   <energy>
    <i name="e_fr_energy">   -223.90042253 </i>
    <i name="e_wo_entrp">   -223.90042253 </i>
    <i name="e_0_energy">   -223.90042253 </i>
   </energy>
  </scstep>
  <scstep>
   <time name="dav">    8.39    8.44</time>
   <time name="total">    8.74    8.79</time>
   <energy>
    <i name="e_fr_energy">   -223.90042294 </i>
    <i name="e_wo_entrp">   -223.90042294 </i>
    <i name="e_0_energy">   -223.90042294 </i>
   </energy>
  </scstep>
  <scstep>
   <time name="dav">    6.29    6.33</time>
   <time name="total">    6.64    6.68</time>
   <energy>
    <i name="e_fr_energy">   -223.90042301 </i>
    <i name="e_wo_entrp">   -223.90042301 </i>
    <i name="e_0_energy">   -223.90042301 </i>
   </energy>
  </scstep>
  <scstep>
   <time name="dav">    7.22    7.27</time>
   <time name="total">    7.56    7.61</time>
   <energy>
    <i name="e_fr_energy">   -223.90042316 </i>
    <i name="e_wo_entrp">   -223.90042316 </i>
    <i name="e_0_energy">   -223.90042316 </i>
   </energy>
  </scstep>
  <scstep>
   <time name="dav">    5.55    5.58</time>
   <time name="total">    5.89    5.92</time>
   <energy>
    <i name="e_fr_energy">   -223.90042314 </i>
    <i name="e_wo_entrp">   -223.90042314 </i>
    <i name="e_0_energy">   -223.90042314 </i>
   </energy>
  </scstep>
  <scstep>
   <time name="dav">    5.63    5.66</time>
   <time name="total">    5.96    6.00</time>
   <energy>
    <i name="e_fr_energy">   -223.90042308 </i>
    <i name="e_wo_entrp">   -223.90042308 </i>
    <i name="e_0_energy">   -223.90042308 </i>
   </energy>
  </scstep>
  <scstep>
   <time name="dav">    5.50    5.53</time>
   <time name="total">    5.84    5.88</time>
   <energy>
    <i name="e_fr_energy">   -223.90042303 </i>
    <i name="e_wo_entrp">   -223.90042303 </i>
    <i name="e_0_energy">   -223.90042303 </i>
   </energy>
  </scstep>
  <scstep>
   <time name="dav">    5.40    5.43</time>
   <time name="total">    5.46    5.49</time>
   <energy>
    <i name="alphaZ">    751.52672365 </i>
    <i name="ewald"> -22871.34026991 </i>
    <i name="hartreedc">  -9078.16915845 </i>
    <i name="XCdc">   1472.51353852 </i>
    <i name="pawpsdc">  29498.31029907 </i>
    <i name="pawaedc"> -32317.67487622 </i>
    <i name="eentropy">     -0.00000000 </i>
    <i name="bandstr">  -5211.24614963 </i>
    <i name="atom">  37532.17946992 </i>
    <i name="e_fr_energy">   -223.90042304 </i>
    <i name="e_wo_entrp">   -223.90042304 </i>
    <i name="e_0_energy">   -223.90042304 </i>
   </energy>
  </scstep>
  <structure>
   <crystal>
    <varray name="basis" >
     <v>      11.20400236       0.00000000       0.00000000 </v>
     <v>       0.00000000      11.20400236       0.00000000 </v>
     <v>       0.00000000       0.00000000      11.20400236 </v>
    </varray>
    <i name="volume">   1406.43470641 </i>
    <varray name="rec_basis" >
     <v>       0.08925382       0.00000000       0.00000000 </v>
     <v>       0.00000000       0.08925382       0.00000000 </v>
     <v>       0.00000000       0.00000000       0.08925382 </v>
    </varray>
   </crystal>
   <varray name="positions" >
    <v>       0.00000000       0.00000000       0.00000000 </v>
    <v>       0.25000000       0.25000000       0.00000000 </v>
    <v>       0.25000000       0.00000000       0.25000000 </v>
    <v>       0.00000000       0.25000000       0.25000000 </v>
    <v>       0.00000000       0.00000000       0.50000000 </v>
    <v>       0.25000000       0.25000000       0.50000000 </v>
    <v>       0.25000000       0.00000000       0.75000000 </v>
    <v>       0.00000000       0.25000000       0.75000000 </v>
    <v>       0.00000000       0.50000000       0.00000000 </v>
    <v>       0.25000000       0.75000000       0.00000000 </v>
    <v>       0.25000000       0.50000000       0.25000000 </v>
    <v>       0.00000000       0.75000000       0.25000000 </v>
    <v>       0.00000000       0.50000000       0.50000000 </v>
    <v>       0.25000000       0.75000000       0.50000000 </v>
    <v>       0.25000000       0.50000000       0.75000000 </v>
    <v>       0.00000000       0.75000000       0.75000000 </v>
    <v>       0.50000000       0.00000000       0.00000000 </v>
    <v>       0.75000000       0.25000000       0.00000000 </v>
    <v>       0.75000000       0.00000000       0.25000000 </v>
    <v>       0.50000000       0.25000000       0.25000000 </v>
    <v>       0.50000000       0.00000000       0.50000000 </v>
    <v>       0.75000000       0.25000000       0.50000000 </v>
    <v>       0.75000000       0.00000000       0.75000000 </v>
    <v>       0.50000000       0.25000000       0.75000000 </v>
    <v>       0.50000000       0.50000000       0.00000000 </v>
    <v>       0.75000000       0.75000000       0.00000000 </v>
    <v>       0.75000000       0.50000000       0.25000000 </v>
    <v>       0.50000000       0.75000000       0.25000000 </v>
    <v>       0.50000000       0.50000000       0.50000000 </v>
    <v>       0.75000000       0.75000000       0.50000000 </v>
    <v>       0.75000000       0.50000000       0.75000000 </v>
    <v>       0.50000000       0.75000000       0.75000000 </v>
    <v>       0.25267761       0.25267761       0.25000000 </v>
    <v>       0.00000000       0.00000000       0.25000000 </v>
    <v>       0.00000000       0.25000000       0.00000000 </v>
    <v>       0.25000000       0.00000000       0.00000000 </v>
    <v>       0.25000000       0.25000000       0.75000000 </v>
    <v>       0.00000000       0.00000000       0.75000000 </v>
    <v>       0.00000000       0.25000000       0.50000000 </v>
    <v>       0.25000000       0.00000000       0.50000000 </v>
    <v>       0.25000000       0.75000000       0.25000000 </v>
    <v>       0.00000000       0.50000000       0.25000000 </v>
    <v>       0.00000000       0.75000000       0.00000000 </v>
    <v>       0.25000000       0.50000000       0.00000000 </v>
    <v>       0.25000000       0.75000000       0.75000000 </v>
    <v>       0.00000000       0.50000000       0.75000000 </v>
    <v>       0.00000000       0.75000000       0.50000000 </v>
    <v>       0.25000000       0.50000000       0.50000000 </v>
    <v>       0.75000000       0.25000000       0.25000000 </v>
    <v>       0.50000000       0.00000000       0.25000000 </v>
    <v>       0.50000000       0.25000000       0.00000000 </v>
    <v>       0.75000000       0.00000000       0.00000000 </v>
    <v>       0.75000000       0.25000000       0.75000000 </v>
    <v>       0.50000000       0.00000000       0.75000000 </v>
    <v>       0.50000000       0.25000000       0.50000000 </v>
    <v>       0.75000000       0.00000000       0.50000000 </v>
    <v>       0.75000000       0.75000000       0.25000000 </v>
    <v>       0.50000000       0.50000000       0.25000000 </v>
    <v>       0.50000000       0.75000000       0.00000000 </v>
    <v>       0.75000000       0.50000000       0.00000000 </v>
    <v>       0.75000000       0.75000000       0.75000000 </v>
    <v>       0.50000000       0.50000000       0.75000000 </v>
    <v>       0.50000000       0.75000000       0.50000000 </v>
    <v>       0.75000000       0.50000000       0.50000000 </v>
   </varray>
  </structure>
  <varray name="forces" >
   <v>      -0.00152051      -0.00152051      -0.00255145 </v>
   <v>       0.00501269       0.00501269       0.00018332 </v>
   <v>       0.00518163       0.01627672      -0.00000000 </v>
   <v>       0.01627672       0.00518163      -0.00000000 </v>
   <v>      -0.00152051      -0.00152051       0.00255145 </v>
   <v>       0.00501269       0.00501269      -0.00018332 </v>
   <v>       0.00060973       0.00015324      -0.00000000 </v>
   <v>       0.00015324       0.00060973      -0.00000000 </v>
   <v>       0.00105776       0.00108163      -0.00002102 </v>
   <v>       0.00060736      -0.00283404       0.00000455 </v>
   <v>       0.00479467       0.02016006      -0.00000000 </v>
   <v>       0.00015437      -0.00278380      -0.00000000 </v>
   <v>       0.00105776       0.00108163       0.00002102 </v>
   <v>       0.00060736      -0.00283404      -0.00000455 </v>
   <v>       0.00060460       0.00016557      -0.00000000 </v>
   <v>      -0.00000076      -0.00067080      -0.00000000 </v>
   <v>       0.00108163       0.00105776      -0.00002102 </v>
   <v>      -0.00283404       0.00060736       0.00000455 </v>
   <v>      -0.00278380       0.00015437      -0.00000000 </v>
   <v>       0.02016006       0.00479467      -0.00000000 </v>
   <v>       0.00108163       0.00105776       0.00002102 </v>
   <v>      -0.00283404       0.00060736      -0.00000455 </v>
   <v>      -0.00067080      -0.00000076      -0.00000000 </v>
   <v>       0.00016557       0.00060460      -0.00000000 </v>
   <v>      -0.00151650      -0.00151650       0.00262693 </v>
   <v>      -0.00066973      -0.00066973       0.00000583 </v>
   <v>      -0.00288596       0.00016498      -0.00000000 </v>
   <v>       0.00016498      -0.00288596      -0.00000000 </v>
   <v>      -0.00151650      -0.00151650      -0.00262693 </v>
   <v>      -0.00066973      -0.00066973      -0.00000583 </v>
   <v>      -0.00066858       0.00000270      -0.00000000 </v>
   <v>       0.00000270      -0.00066858      -0.00000000 </v>
   <v>      -0.07597388      -0.07597388      -0.00000000 </v>
   <v>       0.00942422       0.00942422      -0.00000000 </v>
   <v>       0.00389002      -0.00230000       0.00576387 </v>
   <v>      -0.00230000       0.00389002       0.00576387 </v>
   <v>      -0.00154888      -0.00154888      -0.00000000 </v>
   <v>       0.00053053       0.00053053      -0.00000000 </v>
   <v>       0.00389002      -0.00230000      -0.00576387 </v>
   <v>      -0.00230000       0.00389002      -0.00576387 </v>
   <v>      -0.00155006       0.00384338      -0.00000000 </v>
   <v>      -0.00184084      -0.00199582      -0.00000000 </v>
   <v>      -0.00004053       0.00153558       0.00056435 </v>
   <v>      -0.00237589       0.00388679      -0.00585174 </v>
   <v>      -0.00051967       0.00195980      -0.00000000 </v>
   <v>      -0.00061396      -0.00062052      -0.00000000 </v>
   <v>      -0.00004053       0.00153558      -0.00056435 </v>
   <v>      -0.00237589       0.00388679       0.00585174 </v>
   <v>       0.00384338      -0.00155006      -0.00000000 </v>
   <v>      -0.00199582      -0.00184084      -0.00000000 </v>
   <v>       0.00388679      -0.00237589      -0.00585174 </v>
   <v>       0.00153558      -0.00004053       0.00056435 </v>
   <v>       0.00195980      -0.00051967      -0.00000000 </v>
   <v>      -0.00062052      -0.00061396      -0.00000000 </v>
   <v>       0.00388679      -0.00237589       0.00585174 </v>
   <v>       0.00153558      -0.00004053      -0.00056435 </v>
   <v>       0.00196063       0.00196063      -0.00000000 </v>
   <v>       0.00999078       0.00999078      -0.00000000 </v>
   <v>      -0.00004991       0.00155791      -0.00057915 </v>
   <v>       0.00155791      -0.00004991      -0.00057915 </v>
   <v>       0.00052900       0.00052900      -0.00000000 </v>
   <v>       0.00052169       0.00052169      -0.00000000 </v>
   <v>      -0.00004991       0.00155791       0.00057915 </v>
   <v>       0.00155791      -0.00004991       0.00057915 </v>
  </varray>
  <varray name="stress" >
   <v>      -0.36624839      -0.00219775       0.00000000 </v>
   <v>      -0.00219775      -0.36624839       0.00000000 </v>
   <v>       0.00000000       0.00000000      -0.37805843 </v>
  </varray>
  <energy>
   <i name="e_fr_energy">   -223.90042304 </i>
   <i name="e_wo_entrp">   -223.90042304 </i>
   <i name="e_0_energy">   -223.90042304 </i>
  </energy>
  <time name="totalsc">  187.07  188.15</time>
  <eigenvalues>
   <array>
    <dimension dim="1">band</dimension>
    <dimension dim="2">kpoint</dimension>
    <dimension dim="3">spin</dimension>
    <field>eigene</field>
    <field>occ</field>
    <set>
     <set comment="spin 1">
      <set comment="kpoint 1">
       <r>  -21.3121    1.0000 </r>
       <r>  -21.3101    1.0000 </r>
       <r>  -21.3094    1.0000 </r>
       <r>  -21.3088    1.0000 </r>
       <r>  -21.3047    1.0000 </r>
       <r>  -21.3023    1.0000 </r>
       <r>  -21.3004    1.0000 </r>
       <r>  -21.3002    1.0000 </r>
       <r>  -21.2995    1.0000 </r>
       <r>  -21.2991    1.0000 </r>
       <r>  -21.2940    1.0000 </r>
       <r>  -21.2940    1.0000 </r>
       <r>  -21.2935    1.0000 </r>
       <r>  -21.2935    1.0000 </r>
       <r>  -21.2928    1.0000 </r>
       <r>  -21.2927    1.0000 </r>
       <r>  -21.2918    1.0000 </r>
       <r>  -21.2918    1.0000 </r>
       <r>  -21.2914    1.0000 </r>
       <r>  -21.2908    1.0000 </r>
       <r>  -21.2908    1.0000 </r>
       <r>  -21.2897    1.0000 </r>
       <r>  -21.2891    1.0000 </r>
       <r>  -21.2889    1.0000 </r>
       <r>  -21.2868    1.0000 </r>
       <r>  -21.2862    1.0000 </r>
       <r>  -21.2862    1.0000 </r>
       <r>  -21.2861    1.0000 </r>
       <r>  -21.2856    1.0000 </r>
       <r>  -21.2856    1.0000 </r>
       <r>  -21.2850    1.0000 </r>
       <r>  -21.2845    1.0000 </r>
       <r>  -21.2844    1.0000 </r>
       <r>  -21.2838    1.0000 </r>
       <r>  -21.2838    1.0000 </r>
       <r>  -21.2836    1.0000 </r>
       <r>  -21.2833    1.0000 </r>
       <r>  -21.2832    1.0000 </r>
       <r>  -21.2828    1.0000 </r>
       <r>  -21.2827    1.0000 </r>
       <r>  -21.2822    1.0000 </r>
       <r>  -21.2816    1.0000 </r>
       <r>  -21.2815    1.0000 </r>
       <r>  -21.2812    1.0000 </r>
       <r>  -21.2805    1.0000 </r>
       <r>  -21.2803    1.0000 </r>
       <r>  -21.2803    1.0000 </r>
       <r>  -21.2802    1.0000 </r>
       <r>  -21.2800    1.0000 </r>
       <r>  -21.2799    1.0000 </r>
       <r>  -21.2799    1.0000 </r>
       <r>  -21.2798    1.0000 </r>
       <r>  -21.2797    1.0000 </r>
       <r>  -21.2794    1.0000 </r>
       <r>  -21.2791    1.0000 </r>
       <r>  -21.2785    1.0000 </r>
       <r>  -21.2780    1.0000 </r>
       <r>  -21.2776    1.0000 </r>
       <r>  -21.2769    1.0000 </r>
       <r>  -21.2766    1.0000 </r>
       <r>  -21.2763    1.0000 </r>
       <r>  -21.2761    1.0000 </r>
       <r>  -21.2755    1.0000 </r>
       <r>  -21.2754    1.0000 </r>
       <r>  -21.2753    1.0000 </r>
       <r>  -21.2751    1.0000 </r>
       <r>  -21.2748    1.0000 </r>
       <r>  -21.2744    1.0000 </r>
       <r>  -21.2741    1.0000 </r>
       <r>  -21.2740    1.0000 </r>
       <r>  -21.2739    1.0000 </r>
       <r>  -21.2735    1.0000 </r>
       <r>  -21.2735    1.0000 </r>
       <r>  -21.2727    1.0000 </r>
       <r>  -21.2726    1.0000 </r>
       <r>  -21.2721    1.0000 </r>
       <r>  -21.2716    1.0000 </r>
       <r>  -21.2715    1.0000 </r>
       <r>  -21.2715    1.0000 </r>
       <r>  -21.2715    1.0000 </r>
       <r>  -21.2712    1.0000 </r>
       <r>  -21.2710    1.0000 </r>
       <r>  -21.2708    1.0000 </r>
       <r>  -21.2707    1.0000 </r>
       <r>  -21.2705    1.0000 </r>
       <r>  -21.2704    1.0000 </r>
       <r>  -21.2692    1.0000 </r>
       <r>  -21.2685    1.0000 </r>
       <r>  -21.2681    1.0000 </r>
       <r>  -21.2678    1.0000 </r>
       <r>  -21.2590    1.0000 </r>
       <r>  -21.2566    1.0000 </r>
       <r>  -21.2558    1.0000 </r>
       <r>  -21.2556    1.0000 </r>
       <r>  -21.2555    1.0000 </r>
       <r>  -21.2525    1.0000 </r>
       <r>  -13.3580    1.0000 </r>
       <r>  -13.1388    1.0000 </r>
       <r>  -13.1388    1.0000 </r>
       <r>  -13.1375    1.0000 </r>
       <r>  -13.1373    1.0000 </r>
       <r>  -13.1361    1.0000 </r>
       <r>  -13.1359    1.0000 </r>
       <r>  -13.0165    1.0000 </r>
       <r>  -13.0147    1.0000 </r>
       <r>  -13.0145    1.0000 </r>
       <r>  -13.0126    1.0000 </r>
       <r>  -13.0113    1.0000 </r>
       <r>  -13.0112    1.0000 </r>
       <r>  -13.0111    1.0000 </r>
       <r>  -13.0111    1.0000 </r>
       <r>  -13.0099    1.0000 </r>
       <r>  -13.0088    1.0000 </r>
       <r>  -13.0086    1.0000 </r>
       <r>  -13.0078    1.0000 </r>
       <r>  -12.9899    1.0000 </r>
       <r>  -12.9892    1.0000 </r>
       <r>  -12.9890    1.0000 </r>
       <r>  -12.9883    1.0000 </r>
       <r>  -12.9420    1.0000 </r>
       <r>  -12.9411    1.0000 </r>
       <r>  -12.9406    1.0000 </r>
       <r>  -12.9231    1.0000 </r>
       <r>  -12.9227    1.0000 </r>
       <r>  -12.9211    1.0000 </r>
       <r>  -12.9210    1.0000 </r>
       <r>  -12.9197    1.0000 </r>
       <r>  -12.9178    1.0000 </r>
       <r>   -2.7000    1.0000 </r>
       <r>   -2.7000    1.0000 </r>
       <r>   -2.6999    1.0000 </r>
       <r>   -2.6999    1.0000 </r>
       <r>   -2.4240    1.0000 </r>
       <r>   -2.4240    1.0000 </r>
       <r>   -2.4239    1.0000 </r>
       <r>   -2.2060    1.0000 </r>
       <r>   -2.2052    1.0000 </r>
       <r>   -2.2046    1.0000 </r>
       <r>   -2.2044    1.0000 </r>
       <r>   -2.2044    1.0000 </r>
       <r>   -2.2043    1.0000 </r>
       <r>   -2.2042    1.0000 </r>
       <r>   -2.2041    1.0000 </r>
       <r>   -2.2041    1.0000 </r>
       <r>   -2.2040    1.0000 </r>
       <r>   -2.2032    1.0000 </r>
       <r>   -2.2025    1.0000 </r>
       <r>   -1.9274    1.0000 </r>
       <r>   -1.9274    1.0000 </r>
       <r>   -1.9262    1.0000 </r>
       <r>   -1.9261    1.0000 </r>
       <r>   -1.9247    1.0000 </r>
       <r>   -1.9247    1.0000 </r>
       <r>   -1.9247    1.0000 </r>
       <r>   -1.9246    1.0000 </r>
       <r>   -1.9232    1.0000 </r>
       <r>   -1.9231    1.0000 </r>
       <r>   -1.9221    1.0000 </r>
       <r>   -1.9220    1.0000 </r>
       <r>   -1.7970    1.0000 </r>
       <r>   -1.7969    1.0000 </r>
       <r>   -1.7966    1.0000 </r>
       <r>   -1.7966    1.0000 </r>
       <r>   -1.7964    1.0000 </r>
       <r>   -1.7963    1.0000 </r>
       <r>   -1.5100    1.0000 </r>
       <r>   -1.5100    1.0000 </r>
       <r>   -1.5056    1.0000 </r>
       <r>   -1.5055    1.0000 </r>
       <r>   -1.5053    1.0000 </r>
       <r>   -1.5053    1.0000 </r>
       <r>   -1.5053    1.0000 </r>
       <r>   -1.5052    1.0000 </r>
       <r>   -1.5052    1.0000 </r>
       <r>   -1.5050    1.0000 </r>
       <r>   -1.5010    1.0000 </r>
       <r>   -1.5009    1.0000 </r>
       <r>   -1.4652    1.0000 </r>
       <r>   -1.4641    1.0000 </r>
       <r>   -1.4629    1.0000 </r>
       <r>   -1.4625    1.0000 </r>
       <r>   -1.4613    1.0000 </r>
       <r>   -1.4605    1.0000 </r>
       <r>   -1.2948    1.0000 </r>
       <r>   -1.2947    1.0000 </r>
       <r>   -1.2947    1.0000 </r>
       <r>   -1.2946    1.0000 </r>
       <r>   -1.2946    1.0000 </r>
       <r>   -1.2944    1.0000 </r>
       <r>   -1.0046    1.0000 </r>
       <r>   -1.0044    1.0000 </r>
       <r>   -1.0023    1.0000 </r>
       <r>   -1.0022    1.0000 </r>
       <r>   -1.0010    1.0000 </r>
       <r>   -1.0009    1.0000 </r>
       <r>   -1.0009    1.0000 </r>
       <r>   -1.0007    1.0000 </r>
       <r>   -0.9994    1.0000 </r>
       <r>   -0.9991    1.0000 </r>
       <r>   -0.9971    1.0000 </r>
       <r>   -0.9970    1.0000 </r>
       <r>   -0.9525    1.0000 </r>
       <r>   -0.9525    1.0000 </r>
       <r>   -0.9521    1.0000 </r>
       <r>   -0.9500    1.0000 </r>
       <r>   -0.9496    1.0000 </r>
       <r>   -0.9478    1.0000 </r>
       <r>   -0.9478    1.0000 </r>
       <r>   -0.9477    1.0000 </r>
       <r>   -0.9475    1.0000 </r>
       <r>   -0.9474    1.0000 </r>
       <r>   -0.9472    1.0000 </r>
       <r>   -0.9468    1.0000 </r>
       <r>   -0.9457    1.0000 </r>
       <r>   -0.9455    1.0000 </r>
       <r>   -0.9454    1.0000 </r>
       <r>   -0.9446    1.0000 </r>
       <r>   -0.9436    1.0000 </r>
       <r>   -0.9414    1.0000 </r>
       <r>   -0.9413    1.0000 </r>
       <r>   -0.9409    1.0000 </r>
       <r>   -0.6649    1.0000 </r>
       <r>   -0.6648    1.0000 </r>
       <r>   -0.6648    1.0000 </r>
       <r>    4.3402    0.0000 </r>
       <r>    6.3584    0.0000 </r>
       <r>    6.3644    0.0000 </r>
       <r>    6.3677    0.0000 </r>
       <r>    6.3682    0.0000 </r>
       <r>    6.3719    0.0000 </r>
       <r>    6.3766    0.0000 </r>
       <r>    6.4446    0.0000 </r>
       <r>    6.4446    0.0000 </r>
       <r>    6.4450    0.0000 </r>
       <r>    6.4451    0.0000 </r>
       <r>    6.8278    0.0000 </r>
       <r>    6.8280    0.0000 </r>
       <r>    6.8281    0.0000 </r>
       <r>    7.2067    0.0000 </r>
       <r>    7.2067    0.0000 </r>
       <r>    7.2069    0.0000 </r>
       <r>    7.4481    0.0000 </r>
       <r>    7.4569    0.0000 </r>
       <r>    7.4631    0.0000 </r>
       <r>    7.4637    0.0000 </r>
       <r>    7.4638    0.0000 </r>
       <r>    7.4642    0.0000 </r>
       <r>    7.4642    0.0000 </r>
       <r>    7.4646    0.0000 </r>
       <r>    7.4647    0.0000 </r>
       <r>    7.4648    0.0000 </r>
       <r>    7.4716    0.0000 </r>
       <r>    7.4796    0.0000 </r>
       <r>    8.1616    0.0000 </r>
       <r>    8.1644    0.0000 </r>
       <r>    8.1679    0.0000 </r>
       <r>    8.1684    0.0000 </r>
       <r>    8.1723    0.0000 </r>
       <r>    8.1752    0.0000 </r>
       <r>    8.2769    0.0000 </r>
       <r>    8.2793    0.0000 </r>
       <r>    8.2796    0.0000 </r>
       <r>    8.2797    0.0000 </r>
       <r>    8.2799    0.0000 </r>
       <r>    8.2823    0.0000 </r>
       <r>    8.8852    0.0000 </r>
       <r>    8.8859    0.0000 </r>
       <r>    8.8996    0.0000 </r>
       <r>    8.9000    0.0000 </r>
       <r>    8.9004    0.0000 </r>
       <r>    8.9008    0.0000 </r>
       <r>    8.9008    0.0000 </r>
       <r>    8.9009    0.0000 </r>
       <r>    8.9016    0.0000 </r>
       <r>    8.9028    0.0000 </r>
       <r>    8.9059    0.0000 </r>
       <r>    8.9067    0.0000 </r>
       <r>    8.9115    0.0000 </r>
       <r>    8.9118    0.0000 </r>
       <r>    8.9155    0.0000 </r>
       <r>    8.9157    0.0000 </r>
       <r>    8.9160    0.0000 </r>
       <r>    8.9169    0.0000 </r>
       <r>    8.9172    0.0000 </r>
       <r>    8.9176    0.0000 </r>
       <r>    8.9184    0.0000 </r>
       <r>    8.9271    0.0000 </r>
       <r>    8.9330    0.0000 </r>
      </set>
      <set comment="kpoint 2">
       <r>  -21.3114    1.0000 </r>
       <r>  -21.3091    1.0000 </r>
       <r>  -21.3087    1.0000 </r>
       <r>  -21.3080    1.0000 </r>
       <r>  -21.3053    1.0000 </r>
       <r>  -21.3032    1.0000 </r>
       <r>  -21.2997    1.0000 </r>
       <r>  -21.2980    1.0000 </r>
       <r>  -21.2977    1.0000 </r>
       <r>  -21.2975    1.0000 </r>
       <r>  -21.2965    1.0000 </r>
       <r>  -21.2958    1.0000 </r>
       <r>  -21.2955    1.0000 </r>
       <r>  -21.2943    1.0000 </r>
       <r>  -21.2930    1.0000 </r>
       <r>  -21.2924    1.0000 </r>
       <r>  -21.2917    1.0000 </r>
       <r>  -21.2917    1.0000 </r>
       <r>  -21.2910    1.0000 </r>
       <r>  -21.2909    1.0000 </r>
       <r>  -21.2905    1.0000 </r>
       <r>  -21.2901    1.0000 </r>
       <r>  -21.2893    1.0000 </r>
       <r>  -21.2888    1.0000 </r>
       <r>  -21.2888    1.0000 </r>
       <r>  -21.2887    1.0000 </r>
       <r>  -21.2882    1.0000 </r>
       <r>  -21.2875    1.0000 </r>
       <r>  -21.2872    1.0000 </r>
       <r>  -21.2870    1.0000 </r>
       <r>  -21.2869    1.0000 </r>
       <r>  -21.2859    1.0000 </r>
       <r>  -21.2857    1.0000 </r>
       <r>  -21.2852    1.0000 </r>
       <r>  -21.2848    1.0000 </r>
       <r>  -21.2845    1.0000 </r>
       <r>  -21.2835    1.0000 </r>
       <r>  -21.2829    1.0000 </r>
       <r>  -21.2828    1.0000 </r>
       <r>  -21.2824    1.0000 </r>
       <r>  -21.2818    1.0000 </r>
       <r>  -21.2814    1.0000 </r>
       <r>  -21.2805    1.0000 </r>
       <r>  -21.2802    1.0000 </r>
       <r>  -21.2801    1.0000 </r>
       <r>  -21.2798    1.0000 </r>
       <r>  -21.2795    1.0000 </r>
       <r>  -21.2792    1.0000 </r>
       <r>  -21.2791    1.0000 </r>
       <r>  -21.2789    1.0000 </r>
       <r>  -21.2783    1.0000 </r>
       <r>  -21.2779    1.0000 </r>
       <r>  -21.2777    1.0000 </r>
       <r>  -21.2774    1.0000 </r>
       <r>  -21.2772    1.0000 </r>
       <r>  -21.2770    1.0000 </r>
       <r>  -21.2768    1.0000 </r>
       <r>  -21.2767    1.0000 </r>
       <r>  -21.2764    1.0000 </r>
       <r>  -21.2756    1.0000 </r>
       <r>  -21.2755    1.0000 </r>
       <r>  -21.2754    1.0000 </r>
       <r>  -21.2752    1.0000 </r>
       <r>  -21.2751    1.0000 </r>
       <r>  -21.2751    1.0000 </r>
       <r>  -21.2749    1.0000 </r>
       <r>  -21.2748    1.0000 </r>
       <r>  -21.2746    1.0000 </r>
       <r>  -21.2745    1.0000 </r>
       <r>  -21.2741    1.0000 </r>
       <r>  -21.2738    1.0000 </r>
       <r>  -21.2738    1.0000 </r>
       <r>  -21.2735    1.0000 </r>
       <r>  -21.2734    1.0000 </r>
       <r>  -21.2733    1.0000 </r>
       <r>  -21.2729    1.0000 </r>
       <r>  -21.2726    1.0000 </r>
       <r>  -21.2725    1.0000 </r>
       <r>  -21.2720    1.0000 </r>
       <r>  -21.2720    1.0000 </r>
       <r>  -21.2715    1.0000 </r>
       <r>  -21.2714    1.0000 </r>
       <r>  -21.2710    1.0000 </r>
       <r>  -21.2708    1.0000 </r>
       <r>  -21.2704    1.0000 </r>
       <r>  -21.2704    1.0000 </r>
       <r>  -21.2696    1.0000 </r>
       <r>  -21.2696    1.0000 </r>
       <r>  -21.2684    1.0000 </r>
       <r>  -21.2682    1.0000 </r>
       <r>  -21.2589    1.0000 </r>
       <r>  -21.2567    1.0000 </r>
       <r>  -21.2559    1.0000 </r>
       <r>  -21.2557    1.0000 </r>
       <r>  -21.2555    1.0000 </r>
       <r>  -21.2526    1.0000 </r>
       <r>  -13.2930    1.0000 </r>
       <r>  -13.2894    1.0000 </r>
       <r>  -13.1004    1.0000 </r>
       <r>  -13.0993    1.0000 </r>
       <r>  -13.0985    1.0000 </r>
       <r>  -13.0979    1.0000 </r>
       <r>  -13.0958    1.0000 </r>
       <r>  -13.0953    1.0000 </r>
       <r>  -13.0948    1.0000 </r>
       <r>  -13.0937    1.0000 </r>
       <r>  -13.0057    1.0000 </r>
       <r>  -13.0051    1.0000 </r>
       <r>  -13.0008    1.0000 </r>
       <r>  -13.0007    1.0000 </r>
       <r>  -13.0006    1.0000 </r>
       <r>  -13.0004    1.0000 </r>
       <r>  -12.9978    1.0000 </r>
       <r>  -12.9969    1.0000 </r>
       <r>  -12.9962    1.0000 </r>
       <r>  -12.9924    1.0000 </r>
       <r>  -12.9477    1.0000 </r>
       <r>  -12.9464    1.0000 </r>
       <r>  -12.9456    1.0000 </r>
       <r>  -12.9450    1.0000 </r>
       <r>  -12.9431    1.0000 </r>
       <r>  -12.9415    1.0000 </r>
       <r>  -12.9412    1.0000 </r>
       <r>  -12.9397    1.0000 </r>
       <r>  -12.9348    1.0000 </r>
       <r>  -12.9311    1.0000 </r>
       <r>  -12.9298    1.0000 </r>
       <r>  -12.9258    1.0000 </r>
       <r>   -2.5075    1.0000 </r>
       <r>   -2.5068    1.0000 </r>
       <r>   -2.5047    1.0000 </r>
       <r>   -2.5046    1.0000 </r>
       <r>   -2.5040    1.0000 </r>
       <r>   -2.5039    1.0000 </r>
       <r>   -2.5018    1.0000 </r>
       <r>   -2.5012    1.0000 </r>
       <r>   -2.2891    1.0000 </r>
       <r>   -2.2890    1.0000 </r>
       <r>   -2.2863    1.0000 </r>
       <r>   -2.2863    1.0000 </r>
       <r>   -2.2761    1.0000 </r>
       <r>   -2.2721    1.0000 </r>
       <r>   -2.1394    1.0000 </r>
       <r>   -2.1374    1.0000 </r>
       <r>   -2.1367    1.0000 </r>
       <r>   -2.1364    1.0000 </r>
       <r>   -2.1363    1.0000 </r>
       <r>   -2.1361    1.0000 </r>
       <r>   -2.1355    1.0000 </r>
       <r>   -2.1333    1.0000 </r>
       <r>   -1.9868    1.0000 </r>
       <r>   -1.9866    1.0000 </r>
       <r>   -1.9866    1.0000 </r>
       <r>   -1.9865    1.0000 </r>
       <r>   -1.9843    1.0000 </r>
       <r>   -1.9843    1.0000 </r>
       <r>   -1.9842    1.0000 </r>
       <r>   -1.9840    1.0000 </r>
       <r>   -1.8130    1.0000 </r>
       <r>   -1.8108    1.0000 </r>
       <r>   -1.8096    1.0000 </r>
       <r>   -1.8093    1.0000 </r>
       <r>   -1.8083    1.0000 </r>
       <r>   -1.8079    1.0000 </r>
       <r>   -1.8067    1.0000 </r>
       <r>   -1.8046    1.0000 </r>
       <r>   -1.5010    1.0000 </r>
       <r>   -1.5010    1.0000 </r>
       <r>   -1.4945    1.0000 </r>
       <r>   -1.4945    1.0000 </r>
       <r>   -1.3845    1.0000 </r>
       <r>   -1.3807    1.0000 </r>
       <r>   -1.3800    1.0000 </r>
       <r>   -1.3764    1.0000 </r>
       <r>   -1.2145    1.0000 </r>
       <r>   -1.2140    1.0000 </r>
       <r>   -1.2111    1.0000 </r>
       <r>   -1.2107    1.0000 </r>
       <r>   -1.1950    1.0000 </r>
       <r>   -1.1922    1.0000 </r>
       <r>   -1.1917    1.0000 </r>
       <r>   -1.1916    1.0000 </r>
       <r>   -1.1912    1.0000 </r>
       <r>   -1.1910    1.0000 </r>
       <r>   -1.1900    1.0000 </r>
       <r>   -1.1881    1.0000 </r>
       <r>   -1.1784    1.0000 </r>
       <r>   -1.1782    1.0000 </r>
       <r>   -1.1759    1.0000 </r>
       <r>   -1.1750    1.0000 </r>
       <r>   -1.1730    1.0000 </r>
       <r>   -1.1721    1.0000 </r>
       <r>   -1.1702    1.0000 </r>
       <r>   -1.1689    1.0000 </r>
       <r>   -1.1644    1.0000 </r>
       <r>   -1.1630    1.0000 </r>
       <r>   -1.1617    1.0000 </r>
       <r>   -1.1613    1.0000 </r>
       <r>   -1.1578    1.0000 </r>
       <r>   -1.1576    1.0000 </r>
       <r>   -1.1547    1.0000 </r>
       <r>   -1.1543    1.0000 </r>
       <r>   -1.0857    1.0000 </r>
       <r>   -1.0808    1.0000 </r>
       <r>   -0.9517    1.0000 </r>
       <r>   -0.9511    1.0000 </r>
       <r>   -0.9470    1.0000 </r>
       <r>   -0.9468    1.0000 </r>
       <r>   -0.9468    1.0000 </r>
       <r>   -0.9465    1.0000 </r>
       <r>   -0.9427    1.0000 </r>
       <r>   -0.9421    1.0000 </r>
       <r>   -0.9357    1.0000 </r>
       <r>   -0.9340    1.0000 </r>
       <r>   -0.9338    1.0000 </r>
       <r>   -0.9324    1.0000 </r>
       <r>   -0.9322    1.0000 </r>
       <r>   -0.9307    1.0000 </r>
       <r>   -0.9307    1.0000 </r>
       <r>   -0.9284    1.0000 </r>
       <r>   -0.7712    1.0000 </r>
       <r>   -0.7711    1.0000 </r>
       <r>   -0.7654    1.0000 </r>
       <r>   -0.7653    1.0000 </r>
       <r>    5.0187    0.0000 </r>
       <r>    5.0258    0.0000 </r>
       <r>    6.7050    0.0000 </r>
       <r>    6.7141    0.0000 </r>
       <r>    6.7152    0.0000 </r>
       <r>    6.7181    0.0000 </r>
       <r>    6.7186    0.0000 </r>
       <r>    6.7212    0.0000 </r>
       <r>    6.7216    0.0000 </r>
       <r>    6.7295    0.0000 </r>
       <r>    6.8367    0.0000 </r>
       <r>    6.8376    0.0000 </r>
       <r>    6.8418    0.0000 </r>
       <r>    6.8428    0.0000 </r>
       <r>    6.8438    0.0000 </r>
       <r>    6.8445    0.0000 </r>
       <r>    6.8495    0.0000 </r>
       <r>    6.8502    0.0000 </r>
       <r>    6.9684    0.0000 </r>
       <r>    6.9742    0.0000 </r>
       <r>    7.3562    0.0000 </r>
       <r>    7.3626    0.0000 </r>
       <r>    7.3627    0.0000 </r>
       <r>    7.3689    0.0000 </r>
       <r>    7.4789    0.0000 </r>
       <r>    7.4816    0.0000 </r>
       <r>    7.7110    0.0000 </r>
       <r>    7.7110    0.0000 </r>
       <r>    7.7182    0.0000 </r>
       <r>    7.7183    0.0000 </r>
       <r>    8.2532    0.0000 </r>
       <r>    8.2637    0.0000 </r>
       <r>    8.2646    0.0000 </r>
       <r>    8.2650    0.0000 </r>
       <r>    8.2669    0.0000 </r>
       <r>    8.2673    0.0000 </r>
       <r>    8.2680    0.0000 </r>
       <r>    8.2769    0.0000 </r>
       <r>    8.5243    0.0000 </r>
       <r>    8.5271    0.0000 </r>
       <r>    8.5290    0.0000 </r>
       <r>    8.5367    0.0000 </r>
       <r>    8.5374    0.0000 </r>
       <r>    8.5375    0.0000 </r>
       <r>    8.5376    0.0000 </r>
       <r>    8.5377    0.0000 </r>
       <r>    8.5393    0.0000 </r>
       <r>    8.5394    0.0000 </r>
       <r>    8.5398    0.0000 </r>
       <r>    8.5400    0.0000 </r>
       <r>    8.5401    0.0000 </r>
       <r>    8.5488    0.0000 </r>
       <r>    8.5495    0.0000 </r>
       <r>    8.5527    0.0000 </r>
       <r>    8.9409    0.0000 </r>
       <r>    8.9467    0.0000 </r>
       <r>    8.9491    0.0000 </r>
       <r>    8.9509    0.0000 </r>
       <r>    8.9510    0.0000 </r>
       <r>    8.9527    0.0000 </r>
       <r>    8.9553    0.0000 </r>
       <r>    8.9613    0.0000 </r>
       <r>    9.4891    0.0000 </r>
       <r>    9.5162    0.0000 </r>
      </set>
      <set comment="kpoint 3">
       <r>  -21.3115    1.0000 </r>
       <r>  -21.3093    1.0000 </r>
       <r>  -21.3083    1.0000 </r>
       <r>  -21.3074    1.0000 </r>
       <r>  -21.3046    1.0000 </r>
       <r>  -21.3021    1.0000 </r>
       <r>  -21.3000    1.0000 </r>
       <r>  -21.2998    1.0000 </r>
       <r>  -21.2998    1.0000 </r>
       <r>  -21.2994    1.0000 </r>
       <r>  -21.2971    1.0000 </r>
       <r>  -21.2963    1.0000 </r>
       <r>  -21.2946    1.0000 </r>
       <r>  -21.2929    1.0000 </r>
       <r>  -21.2919    1.0000 </r>
       <r>  -21.2917    1.0000 </r>
       <r>  -21.2916    1.0000 </r>
       <r>  -21.2911    1.0000 </r>
       <r>  -21.2910    1.0000 </r>
       <r>  -21.2909    1.0000 </r>
       <r>  -21.2902    1.0000 </r>
       <r>  -21.2900    1.0000 </r>
       <r>  -21.2894    1.0000 </r>
       <r>  -21.2892    1.0000 </r>
       <r>  -21.2889    1.0000 </r>
       <r>  -21.2886    1.0000 </r>
       <r>  -21.2881    1.0000 </r>
       <r>  -21.2872    1.0000 </r>
       <r>  -21.2871    1.0000 </r>
       <r>  -21.2859    1.0000 </r>
       <r>  -21.2856    1.0000 </r>
       <r>  -21.2851    1.0000 </r>
       <r>  -21.2846    1.0000 </r>
       <r>  -21.2843    1.0000 </r>
       <r>  -21.2842    1.0000 </r>
       <r>  -21.2841    1.0000 </r>
       <r>  -21.2840    1.0000 </r>
       <r>  -21.2835    1.0000 </r>
       <r>  -21.2830    1.0000 </r>
       <r>  -21.2830    1.0000 </r>
       <r>  -21.2824    1.0000 </r>
       <r>  -21.2822    1.0000 </r>
       <r>  -21.2815    1.0000 </r>
       <r>  -21.2808    1.0000 </r>
       <r>  -21.2806    1.0000 </r>
       <r>  -21.2805    1.0000 </r>
       <r>  -21.2804    1.0000 </r>
       <r>  -21.2803    1.0000 </r>
       <r>  -21.2797    1.0000 </r>
       <r>  -21.2784    1.0000 </r>
       <r>  -21.2783    1.0000 </r>
       <r>  -21.2780    1.0000 </r>
       <r>  -21.2775    1.0000 </r>
       <r>  -21.2773    1.0000 </r>
       <r>  -21.2770    1.0000 </r>
       <r>  -21.2770    1.0000 </r>
       <r>  -21.2769    1.0000 </r>
       <r>  -21.2764    1.0000 </r>
       <r>  -21.2763    1.0000 </r>
       <r>  -21.2762    1.0000 </r>
       <r>  -21.2761    1.0000 </r>
       <r>  -21.2761    1.0000 </r>
       <r>  -21.2760    1.0000 </r>
       <r>  -21.2758    1.0000 </r>
       <r>  -21.2751    1.0000 </r>
       <r>  -21.2750    1.0000 </r>
       <r>  -21.2746    1.0000 </r>
       <r>  -21.2746    1.0000 </r>
       <r>  -21.2746    1.0000 </r>
       <r>  -21.2739    1.0000 </r>
       <r>  -21.2739    1.0000 </r>
       <r>  -21.2738    1.0000 </r>
       <r>  -21.2734    1.0000 </r>
       <r>  -21.2729    1.0000 </r>
       <r>  -21.2725    1.0000 </r>
       <r>  -21.2724    1.0000 </r>
       <r>  -21.2723    1.0000 </r>
       <r>  -21.2722    1.0000 </r>
       <r>  -21.2716    1.0000 </r>
       <r>  -21.2716    1.0000 </r>
       <r>  -21.2711    1.0000 </r>
       <r>  -21.2710    1.0000 </r>
       <r>  -21.2709    1.0000 </r>
       <r>  -21.2705    1.0000 </r>
       <r>  -21.2705    1.0000 </r>
       <r>  -21.2702    1.0000 </r>
       <r>  -21.2692    1.0000 </r>
       <r>  -21.2692    1.0000 </r>
       <r>  -21.2690    1.0000 </r>
       <r>  -21.2689    1.0000 </r>
       <r>  -21.2591    1.0000 </r>
       <r>  -21.2567    1.0000 </r>
       <r>  -21.2559    1.0000 </r>
       <r>  -21.2558    1.0000 </r>
       <r>  -21.2557    1.0000 </r>
       <r>  -21.2525    1.0000 </r>
       <r>  -13.2913    1.0000 </r>
       <r>  -13.2912    1.0000 </r>
       <r>  -13.0984    1.0000 </r>
       <r>  -13.0984    1.0000 </r>
       <r>  -13.0984    1.0000 </r>
       <r>  -13.0978    1.0000 </r>
       <r>  -13.0966    1.0000 </r>
       <r>  -13.0955    1.0000 </r>
       <r>  -13.0955    1.0000 </r>
       <r>  -13.0954    1.0000 </r>
       <r>  -13.0026    1.0000 </r>
       <r>  -13.0014    1.0000 </r>
       <r>  -13.0009    1.0000 </r>
       <r>  -13.0008    1.0000 </r>
       <r>  -13.0008    1.0000 </r>
       <r>  -13.0006    1.0000 </r>
       <r>  -13.0006    1.0000 </r>
       <r>  -12.9999    1.0000 </r>
       <r>  -12.9949    1.0000 </r>
       <r>  -12.9948    1.0000 </r>
       <r>  -12.9455    1.0000 </r>
       <r>  -12.9455    1.0000 </r>
       <r>  -12.9451    1.0000 </r>
       <r>  -12.9450    1.0000 </r>
       <r>  -12.9426    1.0000 </r>
       <r>  -12.9426    1.0000 </r>
       <r>  -12.9425    1.0000 </r>
       <r>  -12.9421    1.0000 </r>
       <r>  -12.9311    1.0000 </r>
       <r>  -12.9302    1.0000 </r>
       <r>  -12.9302    1.0000 </r>
       <r>  -12.9285    1.0000 </r>
       <r>   -2.5055    1.0000 </r>
       <r>   -2.5051    1.0000 </r>
       <r>   -2.5044    1.0000 </r>
       <r>   -2.5043    1.0000 </r>
       <r>   -2.5043    1.0000 </r>
       <r>   -2.5043    1.0000 </r>
       <r>   -2.5035    1.0000 </r>
       <r>   -2.5032    1.0000 </r>
       <r>   -2.2877    1.0000 </r>
       <r>   -2.2877    1.0000 </r>
       <r>   -2.2876    1.0000 </r>
       <r>   -2.2876    1.0000 </r>
       <r>   -2.2741    1.0000 </r>
       <r>   -2.2741    1.0000 </r>
       <r>   -2.1382    1.0000 </r>
       <r>   -2.1374    1.0000 </r>
       <r>   -2.1366    1.0000 </r>
       <r>   -2.1366    1.0000 </r>
       <r>   -2.1362    1.0000 </r>
       <r>   -2.1362    1.0000 </r>
       <r>   -2.1354    1.0000 </r>
       <r>   -2.1345    1.0000 </r>
       <r>   -1.9860    1.0000 </r>
       <r>   -1.9859    1.0000 </r>
       <r>   -1.9858    1.0000 </r>
       <r>   -1.9856    1.0000 </r>
       <r>   -1.9852    1.0000 </r>
       <r>   -1.9850    1.0000 </r>
       <r>   -1.9849    1.0000 </r>
       <r>   -1.9849    1.0000 </r>
       <r>   -1.8138    1.0000 </r>
       <r>   -1.8089    1.0000 </r>
       <r>   -1.8089    1.0000 </r>
       <r>   -1.8088    1.0000 </r>
       <r>   -1.8086    1.0000 </r>
       <r>   -1.8086    1.0000 </r>
       <r>   -1.8086    1.0000 </r>
       <r>   -1.8038    1.0000 </r>
       <r>   -1.4979    1.0000 </r>
       <r>   -1.4978    1.0000 </r>
       <r>   -1.4978    1.0000 </r>
       <r>   -1.4977    1.0000 </r>
       <r>   -1.3806    1.0000 </r>
       <r>   -1.3804    1.0000 </r>
       <r>   -1.3804    1.0000 </r>
       <r>   -1.3803    1.0000 </r>
       <r>   -1.2133    1.0000 </r>
       <r>   -1.2127    1.0000 </r>
       <r>   -1.2125    1.0000 </r>
       <r>   -1.2124    1.0000 </r>
       <r>   -1.1923    1.0000 </r>
       <r>   -1.1919    1.0000 </r>
       <r>   -1.1916    1.0000 </r>
       <r>   -1.1914    1.0000 </r>
       <r>   -1.1907    1.0000 </r>
       <r>   -1.1906    1.0000 </r>
       <r>   -1.1903    1.0000 </r>
       <r>   -1.1898    1.0000 </r>
       <r>   -1.1786    1.0000 </r>
       <r>   -1.1745    1.0000 </r>
       <r>   -1.1742    1.0000 </r>
       <r>   -1.1740    1.0000 </r>
       <r>   -1.1740    1.0000 </r>
       <r>   -1.1734    1.0000 </r>
       <r>   -1.1732    1.0000 </r>
       <r>   -1.1711    1.0000 </r>
       <r>   -1.1633    1.0000 </r>
       <r>   -1.1598    1.0000 </r>
       <r>   -1.1597    1.0000 </r>
       <r>   -1.1597    1.0000 </r>
       <r>   -1.1596    1.0000 </r>
       <r>   -1.1594    1.0000 </r>
       <r>   -1.1581    1.0000 </r>
       <r>   -1.1558    1.0000 </r>
       <r>   -1.0833    1.0000 </r>
       <r>   -1.0832    1.0000 </r>
       <r>   -0.9486    1.0000 </r>
       <r>   -0.9470    1.0000 </r>
       <r>   -0.9469    1.0000 </r>
       <r>   -0.9469    1.0000 </r>
       <r>   -0.9469    1.0000 </r>
       <r>   -0.9468    1.0000 </r>
       <r>   -0.9466    1.0000 </r>
       <r>   -0.9449    1.0000 </r>
       <r>   -0.9353    1.0000 </r>
       <r>   -0.9345    1.0000 </r>
       <r>   -0.9335    1.0000 </r>
       <r>   -0.9328    1.0000 </r>
       <r>   -0.9315    1.0000 </r>
       <r>   -0.9313    1.0000 </r>
       <r>   -0.9301    1.0000 </r>
       <r>   -0.9287    1.0000 </r>
       <r>   -0.7684    1.0000 </r>
       <r>   -0.7683    1.0000 </r>
       <r>   -0.7682    1.0000 </r>
       <r>   -0.7680    1.0000 </r>
       <r>    5.0222    0.0000 </r>
       <r>    5.0224    0.0000 </r>
       <r>    6.7057    0.0000 </r>
       <r>    6.7130    0.0000 </r>
       <r>    6.7154    0.0000 </r>
       <r>    6.7179    0.0000 </r>
       <r>    6.7189    0.0000 </r>
       <r>    6.7209    0.0000 </r>
       <r>    6.7231    0.0000 </r>
       <r>    6.7279    0.0000 </r>
       <r>    6.8366    0.0000 </r>
       <r>    6.8413    0.0000 </r>
       <r>    6.8432    0.0000 </r>
       <r>    6.8432    0.0000 </r>
       <r>    6.8433    0.0000 </r>
       <r>    6.8433    0.0000 </r>
       <r>    6.8453    0.0000 </r>
       <r>    6.8511    0.0000 </r>
       <r>    6.9711    0.0000 </r>
       <r>    6.9713    0.0000 </r>
       <r>    7.3624    0.0000 </r>
       <r>    7.3626    0.0000 </r>
       <r>    7.3626    0.0000 </r>
       <r>    7.3628    0.0000 </r>
       <r>    7.4802    0.0000 </r>
       <r>    7.4803    0.0000 </r>
       <r>    7.7145    0.0000 </r>
       <r>    7.7146    0.0000 </r>
       <r>    7.7147    0.0000 </r>
       <r>    7.7147    0.0000 </r>
       <r>    8.2563    0.0000 </r>
       <r>    8.2642    0.0000 </r>
       <r>    8.2649    0.0000 </r>
       <r>    8.2651    0.0000 </r>
       <r>    8.2669    0.0000 </r>
       <r>    8.2669    0.0000 </r>
       <r>    8.2673    0.0000 </r>
       <r>    8.2753    0.0000 </r>
       <r>    8.5257    0.0000 </r>
       <r>    8.5283    0.0000 </r>
       <r>    8.5293    0.0000 </r>
       <r>    8.5377    0.0000 </r>
       <r>    8.5379    0.0000 </r>
       <r>    8.5380    0.0000 </r>
       <r>    8.5382    0.0000 </r>
       <r>    8.5384    0.0000 </r>
       <r>    8.5389    0.0000 </r>
       <r>    8.5391    0.0000 </r>
       <r>    8.5391    0.0000 </r>
       <r>    8.5391    0.0000 </r>
       <r>    8.5392    0.0000 </r>
       <r>    8.5472    0.0000 </r>
       <r>    8.5492    0.0000 </r>
       <r>    8.5508    0.0000 </r>
       <r>    8.9383    0.0000 </r>
       <r>    8.9497    0.0000 </r>
       <r>    8.9502    0.0000 </r>
       <r>    8.9507    0.0000 </r>
       <r>    8.9510    0.0000 </r>
       <r>    8.9515    0.0000 </r>
       <r>    8.9516    0.0000 </r>
       <r>    8.9644    0.0000 </r>
       <r>    9.4884    0.0000 </r>
       <r>    9.5025    0.0000 </r>
      </set>
      <set comment="kpoint 4">
       <r>  -21.3111    1.0000 </r>
       <r>  -21.3083    1.0000 </r>
       <r>  -21.3081    1.0000 </r>
       <r>  -21.3076    1.0000 </r>
       <r>  -21.3057    1.0000 </r>
       <r>  -21.3027    1.0000 </r>
       <r>  -21.2981    1.0000 </r>
       <r>  -21.2975    1.0000 </r>
       <r>  -21.2973    1.0000 </r>
       <r>  -21.2959    1.0000 </r>
       <r>  -21.2955    1.0000 </r>
       <r>  -21.2954    1.0000 </r>
       <r>  -21.2953    1.0000 </r>
       <r>  -21.2935    1.0000 </r>
       <r>  -21.2934    1.0000 </r>
       <r>  -21.2932    1.0000 </r>
       <r>  -21.2928    1.0000 </r>
       <r>  -21.2927    1.0000 </r>
       <r>  -21.2925    1.0000 </r>
       <r>  -21.2923    1.0000 </r>
       <r>  -21.2920    1.0000 </r>
       <r>  -21.2913    1.0000 </r>
       <r>  -21.2910    1.0000 </r>
       <r>  -21.2907    1.0000 </r>
       <r>  -21.2903    1.0000 </r>
       <r>  -21.2899    1.0000 </r>
       <r>  -21.2898    1.0000 </r>
       <r>  -21.2892    1.0000 </r>
       <r>  -21.2879    1.0000 </r>
       <r>  -21.2858    1.0000 </r>
       <r>  -21.2857    1.0000 </r>
       <r>  -21.2856    1.0000 </r>
       <r>  -21.2853    1.0000 </r>
       <r>  -21.2849    1.0000 </r>
       <r>  -21.2846    1.0000 </r>
       <r>  -21.2830    1.0000 </r>
       <r>  -21.2826    1.0000 </r>
[...]
      </set>
     </set>
    </set>
   </array>
  </eigenvalues>
  <separator name="orbital magnetization" >
   <v name="MAGDIPOLOUT">      0.00000000      0.00000000      0.00000000</v>
  </separator>
  <dos>
   <i name="efermi">     -0.55698105 </i>
   <total>
    <array>
     <dimension dim="1">gridpoints</dimension>
     <dimension dim="2">spin</dimension>
     <field>energy</field>
     <field>total</field>
     <field>integrated</field>
     <set>
      <set comment="spin 1">
       <r>   -22.8535     0.0000     0.0000 </r>
       <r>   -22.7405     0.0000     0.0000 </r>
       <r>   -22.6274     0.0000     0.0000 </r>
       <r>   -22.5144     0.0000     0.0000 </r>
       <r>   -22.4014     0.0000     0.0000 </r>
       <r>   -22.2883     0.0000     0.0000 </r>
       <r>   -22.1753     0.0000     0.0000 </r>
       <r>   -22.0623     0.0000     0.0000 </r>
       <r>   -21.9492     0.0000     0.0000 </r>
       <r>   -21.8362     0.0000     0.0000 </r>
       <r>   -21.7231     0.0000     0.0000 </r>
       <r>   -21.6101     0.0000     0.0000 </r>
       <r>   -21.4971     0.0000     0.0000 </r>
       <r>   -21.3840     0.0000     0.0000 </r>
       <r>   -21.2710  1199.8898   135.6319 </r>
       <r>   -21.1580   498.6699   192.0000 </r>
       <r>   -21.0449     0.0000   192.0000 </r>
       <r>   -20.9319     0.0000   192.0000 </r>
       <r>   -20.8189     0.0000   192.0000 </r>
       <r>   -20.7058     0.0000   192.0000 </r>
       <r>   -20.5928     0.0000   192.0000 </r>
       <r>   -20.4797     0.0000   192.0000 </r>
       <r>   -20.3667     0.0000   192.0000 </r>
       <r>   -20.2537     0.0000   192.0000 </r>
       <r>   -20.1406     0.0000   192.0000 </r>
       <r>   -20.0276     0.0000   192.0000 </r>
       <r>   -19.9146     0.0000   192.0000 </r>
       <r>   -19.8015     0.0000   192.0000 </r>
       <r>   -19.6885     0.0000   192.0000 </r>
       <r>   -19.5754     0.0000   192.0000 </r>
       <r>   -19.4624     0.0000   192.0000 </r>
       <r>   -19.3494     0.0000   192.0000 </r>
       <r>   -19.2363     0.0000   192.0000 </r>
       <r>   -19.1233     0.0000   192.0000 </r>
       <r>   -19.0103     0.0000   192.0000 </r>
       <r>   -18.8972     0.0000   192.0000 </r>
       <r>   -18.7842     0.0000   192.0000 </r>
       <r>   -18.6712     0.0000   192.0000 </r>
       <r>   -18.5581     0.0000   192.0000 </r>
       <r>   -18.4451     0.0000   192.0000 </r>
       <r>   -18.3320     0.0000   192.0000 </r>
       <r>   -18.2190     0.0000   192.0000 </r>
       <r>   -18.1060     0.0000   192.0000 </r>
       <r>   -17.9929     0.0000   192.0000 </r>
       <r>   -17.8799     0.0000   192.0000 </r>
       <r>   -17.7669     0.0000   192.0000 </r>
       <r>   -17.6538     0.0000   192.0000 </r>
       <r>   -17.5408     0.0000   192.0000 </r>
       <r>   -17.4277     0.0000   192.0000 </r>
       <r>   -17.3147     0.0000   192.0000 </r>
       <r>   -17.2017     0.0000   192.0000 </r>
       <r>   -17.0886     0.0000   192.0000 </r>
       <r>   -16.9756     0.0000   192.0000 </r>
       <r>   -16.8626     0.0000   192.0000 </r>
       <r>   -16.7495     0.0000   192.0000 </r>
       <r>   -16.6365     0.0000   192.0000 </r>
       <r>   -16.5234     0.0000   192.0000 </r>
       <r>   -16.4104     0.0000   192.0000 </r>
       <r>   -16.2974     0.0000   192.0000 </r>
       <r>   -16.1843     0.0000   192.0000 </r>
       <r>   -16.0713     0.0000   192.0000 </r>
       <r>   -15.9583     0.0000   192.0000 </r>
       <r>   -15.8452     0.0000   192.0000 </r>
       <r>   -15.7322     0.0000   192.0000 </r>
       <r>   -15.6192     0.0000   192.0000 </r>
       <r>   -15.5061     0.0000   192.0000 </r>
       <r>   -15.3931     0.0000   192.0000 </r>
       <r>   -15.2800     0.0000   192.0000 </r>
       <r>   -15.1670     0.0000   192.0000 </r>
       <r>   -15.0540     0.0000   192.0000 </r>
       <r>   -14.9409     0.0000   192.0000 </r>
       <r>   -14.8279     0.0000   192.0000 </r>
       <r>   -14.7149     0.0000   192.0000 </r>
       <r>   -14.6018     0.0000   192.0000 </r>
       <r>   -14.4888     0.0000   192.0000 </r>
       <r>   -14.3757     0.0000   192.0000 </r>
       <r>   -14.2627     0.0000   192.0000 </r>
       <r>   -14.1497     0.0000   192.0000 </r>
       <r>   -14.0366     0.0000   192.0000 </r>
       <r>   -13.9236     0.0000   192.0000 </r>
       <r>   -13.8106     0.0000   192.0000 </r>
       <r>   -13.6975     0.0000   192.0000 </r>
       <r>   -13.5845     0.0000   192.0000 </r>
       <r>   -13.4715     0.0000   192.0000 </r>
       <r>   -13.3584     1.0783   192.1219 </r>
       <r>   -13.2454    18.8822   194.2563 </r>
       <r>   -13.1323    48.5896   199.7489 </r>
       <r>   -13.0193   124.4835   213.8206 </r>
       <r>   -12.9063   368.2896   255.4513 </r>
       <r>   -12.7932     4.8447   256.0000 </r>
       <r>   -12.6802     0.0000   256.0000 </r>
       <r>   -12.5672     0.0000   256.0000 </r>
       <r>   -12.4541     0.0000   256.0000 </r>
       <r>   -12.3411     0.0000   256.0000 </r>
       <r>   -12.2280     0.0000   256.0000 </r>
       <r>   -12.1150     0.0000   256.0000 </r>
       <r>   -12.0020     0.0000   256.0000 </r>
       <r>   -11.8889     0.0000   256.0000 </r>
       <r>   -11.7759     0.0000   256.0000 </r>
       <r>   -11.6629     0.0000   256.0000 </r>
       <r>   -11.5498     0.0000   256.0000 </r>
       <r>   -11.4368     0.0000   256.0000 </r>
       <r>   -11.3238     0.0000   256.0000 </r>
       <r>   -11.2107     0.0000   256.0000 </r>
       <r>   -11.0977     0.0000   256.0000 </r>
       <r>   -10.9846     0.0000   256.0000 </r>
       <r>   -10.8716     0.0000   256.0000 </r>
       <r>   -10.7586     0.0000   256.0000 </r>
       <r>   -10.6455     0.0000   256.0000 </r>
       <r>   -10.5325     0.0000   256.0000 </r>
       <r>   -10.4195     0.0000   256.0000 </r>
       <r>   -10.3064     0.0000   256.0000 </r>
       <r>   -10.1934     0.0000   256.0000 </r>
       <r>   -10.0803     0.0000   256.0000 </r>
       <r>    -9.9673     0.0000   256.0000 </r>
       <r>    -9.8543     0.0000   256.0000 </r>
       <r>    -9.7412     0.0000   256.0000 </r>
       <r>    -9.6282     0.0000   256.0000 </r>
       <r>    -9.5152     0.0000   256.0000 </r>
       <r>    -9.4021     0.0000   256.0000 </r>
       <r>    -9.2891     0.0000   256.0000 </r>
       <r>    -9.1760     0.0000   256.0000 </r>
       <r>    -9.0630     0.0000   256.0000 </r>
       <r>    -8.9500     0.0000   256.0000 </r>
       <r>    -8.8369     0.0000   256.0000 </r>
       <r>    -8.7239     0.0000   256.0000 </r>
       <r>    -8.6109     0.0000   256.0000 </r>
       <r>    -8.4978     0.0000   256.0000 </r>
       <r>    -8.3848     0.0000   256.0000 </r>
       <r>    -8.2718     0.0000   256.0000 </r>
       <r>    -8.1587     0.0000   256.0000 </r>
       <r>    -8.0457     0.0000   256.0000 </r>
       <r>    -7.9326     0.0000   256.0000 </r>
       <r>    -7.8196     0.0000   256.0000 </r>
       <r>    -7.7066     0.0000   256.0000 </r>
       <r>    -7.5935     0.0000   256.0000 </r>
       <r>    -7.4805     0.0000   256.0000 </r>
       <r>    -7.3675     0.0000   256.0000 </r>
       <r>    -7.2544     0.0000   256.0000 </r>
       <r>    -7.1414     0.0000   256.0000 </r>
       <r>    -7.0283     0.0000   256.0000 </r>
       <r>    -6.9153     0.0000   256.0000 </r>
       <r>    -6.8023     0.0000   256.0000 </r>
       <r>    -6.6892     0.0000   256.0000 </r>
       <r>    -6.5762     0.0000   256.0000 </r>
       <r>    -6.4632     0.0000   256.0000 </r>
       <r>    -6.3501     0.0000   256.0000 </r>
       <r>    -6.2371     0.0000   256.0000 </r>
       <r>    -6.1241     0.0000   256.0000 </r>
       <r>    -6.0110     0.0000   256.0000 </r>
       <r>    -5.8980     0.0000   256.0000 </r>
       <r>    -5.7849     0.0000   256.0000 </r>
       <r>    -5.6719     0.0000   256.0000 </r>
       <r>    -5.5589     0.0000   256.0000 </r>
       <r>    -5.4458     0.0000   256.0000 </r>
       <r>    -5.3328     0.0000   256.0000 </r>
       <r>    -5.2198     0.0000   256.0000 </r>
       <r>    -5.1067     0.0000   256.0000 </r>
       <r>    -4.9937     0.0000   256.0000 </r>
       <r>    -4.8806     0.0000   256.0000 </r>
       <r>    -4.7676     0.0000   256.0000 </r>
       <r>    -4.6546     0.0000   256.0000 </r>
       <r>    -4.5415     0.0000   256.0000 </r>
       <r>    -4.4285     0.0000   256.0000 </r>
       <r>    -4.3155     0.0000   256.0000 </r>
       <r>    -4.2024     0.0000   256.0000 </r>
       <r>    -4.0894     0.0000   256.0000 </r>
       <r>    -3.9763     0.0000   256.0000 </r>
       <r>    -3.8633     0.0000   256.0000 </r>
       <r>    -3.7503     0.0000   256.0000 </r>
       <r>    -3.6372     0.0000   256.0000 </r>
       <r>    -3.5242     0.0000   256.0000 </r>
       <r>    -3.4112     0.0000   256.0000 </r>
       <r>    -3.2981     0.0000   256.0000 </r>
       <r>    -3.1851     0.0000   256.0000 </r>
       <r>    -3.0721     0.0000   256.0000 </r>
       <r>    -2.9590     0.0000   256.0000 </r>
       <r>    -2.8460     0.0000   256.0000 </r>
       <r>    -2.7329     0.0870   256.0098 </r>
       <r>    -2.6199     8.7597   257.0000 </r>
       <r>    -2.5069    22.7686   259.5737 </r>
       <r>    -2.3938    85.1761   269.2017 </r>
       <r>    -2.2808    81.4219   278.4054 </r>
       <r>    -2.1678   155.2365   295.9535 </r>
       <r>    -2.0547    73.3962   304.2500 </r>
       <r>    -1.9417    56.1116   310.5927 </r>
       <r>    -1.8286    60.8706   317.4733 </r>
       <r>    -1.7156    73.2211   325.7500 </r>
       <r>    -1.6026     0.0000   325.7500 </r>
       <r>    -1.4895    66.7930   333.3001 </r>
       <r>    -1.3765   199.6970   355.8732 </r>
       <r>    -1.2635    25.5544   358.7618 </r>
       <r>    -1.1504   251.0770   387.1428 </r>
       <r>    -1.0374   138.4543   402.7933 </r>
       <r>    -0.9244   257.2356   431.8706 </r>
       <r>    -0.8113    63.8984   439.0948 </r>
       <r>    -0.6983    72.1510   447.2505 </r>
       <r>    -0.5852     6.6304   448.0000 </r>
       <r>    -0.4722     0.0000   448.0000 </r>
       <r>    -0.3592     0.0000   448.0000 </r>
       <r>    -0.2461     0.0000   448.0000 </r>
       <r>    -0.1331     0.0000   448.0000 </r>
       <r>    -0.0201     0.0000   448.0000 </r>
       <r>     0.0930     0.0000   448.0000 </r>
       <r>     0.2060     0.0000   448.0000 </r>
       <r>     0.3191     0.0000   448.0000 </r>
       <r>     0.4321     0.0000   448.0000 </r>
       <r>     0.5451     0.0000   448.0000 </r>
       <r>     0.6582     0.0000   448.0000 </r>
       <r>     0.7712     0.0000   448.0000 </r>
       <r>     0.8842     0.0000   448.0000 </r>
       <r>     0.9973     0.0000   448.0000 </r>
       <r>     1.1103     0.0000   448.0000 </r>
       <r>     1.2234     0.0000   448.0000 </r>
       <r>     1.3364     0.0000   448.0000 </r>
       <r>     1.4494     0.0000   448.0000 </r>
       <r>     1.5625     0.0000   448.0000 </r>
       <r>     1.6755     0.0000   448.0000 </r>
       <r>     1.7885     0.0000   448.0000 </r>
       <r>     1.9016     0.0000   448.0000 </r>
       <r>     2.0146     0.0000   448.0000 </r>
       <r>     2.1276     0.0000   448.0000 </r>
       <r>     2.2407     0.0000   448.0000 </r>
       <r>     2.3537     0.0000   448.0000 </r>
       <r>     2.4668     0.0000   448.0000 </r>
       <r>     2.5798     0.0000   448.0000 </r>
       <r>     2.6928     0.0000   448.0000 </r>
       <r>     2.8059     0.0000   448.0000 </r>
       <r>     2.9189     0.0000   448.0000 </r>
       <r>     3.0319     0.0000   448.0000 </r>
       <r>     3.1450     0.0000   448.0000 </r>
       <r>     3.2580     0.0000   448.0000 </r>
       <r>     3.3711     0.0000   448.0000 </r>
       <r>     3.4841     0.0000   448.0000 </r>
       <r>     3.5971     0.0000   448.0000 </r>
       <r>     3.7102     0.0000   448.0000 </r>
       <r>     3.8232     0.0000   448.0000 </r>
       <r>     3.9362     0.0000   448.0000 </r>
       <r>     4.0493     0.0000   448.0000 </r>
       <r>     4.1623     0.0000   448.0000 </r>
       <r>     4.2753     0.0000   448.0000 </r>
       <r>     4.3884     2.2109   448.2499 </r>
       <r>     4.5014     0.0000   448.2500 </r>
       <r>     4.6145     0.0000   448.2500 </r>
       <r>     4.7275     0.0000   448.2500 </r>
       <r>     4.8405     0.0000   448.2500 </r>
       <r>     4.9536     0.0000   448.2500 </r>
       <r>     5.0666    13.2559   449.7484 </r>
       <r>     5.1796     0.0125   449.7500 </r>
       <r>     5.2927     0.0000   449.7500 </r>
       <r>     5.4057     0.0000   449.7500 </r>
       <r>     5.5188     2.2504   450.0044 </r>
       <r>     5.6318    24.2896   452.7500 </r>
       <r>     5.7448     0.0000   452.7500 </r>
       <r>     5.8579    16.9059   454.6610 </r>
       <r>     5.9709     0.7875   454.7500 </r>
       <r>     6.0839     0.0000   454.7500 </r>
       <r>     6.1970     0.0000   454.7500 </r>
       <r>     6.3100     0.0009   454.7501 </r>
       <r>     6.4231    13.8145   456.3117 </r>
       <r>     6.5361     8.3006   457.2500 </r>
       <r>     6.6491    39.8720   461.7570 </r>
       <r>     6.7622    66.1788   469.2377 </r>
       <r>     6.8752    58.9839   475.9053 </r>
       <r>     6.9882    12.5336   477.3224 </r>
       <r>     7.1013     1.5716   477.5000 </r>
       <r>     7.2143     4.6619   478.0270 </r>
       <r>     7.3273     2.1847   478.2739 </r>
       <r>     7.4404    81.3136   487.4654 </r>
       <r>     7.5534   166.7660   506.3161 </r>
       <r>     7.6665     3.8496   506.7513 </r>
       <r>     7.7795    26.5286   509.7500 </r>
       <r>     7.8925     0.1461   509.7665 </r>
       <r>     8.0056    52.9338   515.7500 </r>
       <r>     8.1186     0.0052   515.7506 </r>
       <r>     8.2316    13.9626   517.3289 </r>
       <r>     8.3447    92.1729   527.7478 </r>
       <r>     8.4577     0.0161   527.7500 </r>
       <r>     8.5708   145.3868   544.1841 </r>
       <r>     8.6838    13.8532   545.7500 </r>
       <r>     8.7968     0.0000   545.7500 </r>
       <r>     8.9099    79.6387   554.7521 </r>
       <r>     9.0229   124.9303   568.8739 </r>
       <r>     9.1359     5.5392   569.5000 </r>
       <r>     9.2490    21.9090   571.9765 </r>
       <r>     9.3620    22.3243   574.5000 </r>
       <r>     9.4750     1.1541   574.6305 </r>
       <r>     9.5881    12.1159   576.0000 </r>
       <r>     9.7011     0.0000   576.0000 </r>
       <r>     9.8142     0.0000   576.0000 </r>
       <r>     9.9272     0.0000   576.0000 </r>
       <r>    10.0402     0.0000   576.0000 </r>
       <r>    10.1533     0.0000   576.0000 </r>
       <r>    10.2663     0.0000   576.0000 </r>
       <r>    10.3793     0.0000   576.0000 </r>
       <r>    10.4924     0.0000   576.0000 </r>
       <r>    10.6054     0.0000   576.0000 </r>
       <r>    10.7185     0.0000   576.0000 </r>
       <r>    10.8315     0.0000   576.0000 </r>
       <r>    10.9445     0.0000   576.0000 </r>
       <r>    11.0576     0.0000   576.0000 </r>
      </set>
     </set>
    </array>
   </total>
  </dos>
 </calculation>
 <structure name="finalpos" >
  <crystal>
   <varray name="basis" >
    <v>      11.20400236       0.00000000       0.00000000 </v>
    <v>       0.00000000      11.20400236       0.00000000 </v>
    <v>       0.00000000       0.00000000      11.20400236 </v>
   </varray>
   <i name="volume">   1406.43470641 </i>
   <varray name="rec_basis" >
    <v>       0.08925382       0.00000000       0.00000000 </v>
    <v>       0.00000000       0.08925382       0.00000000 </v>
    <v>       0.00000000       0.00000000       0.08925382 </v>
   </varray>
  </crystal>
  <varray name="positions" >
   <v>       0.00000000       0.00000000       0.00000000 </v>
   <v>       0.25000000       0.25000000       0.00000000 </v>
   <v>       0.25000000       0.00000000       0.25000000 </v>
   <v>       0.00000000       0.25000000       0.25000000 </v>
   <v>       0.00000000       0.00000000       0.50000000 </v>
   <v>       0.25000000       0.25000000       0.50000000 </v>
   <v>       0.25000000       0.00000000       0.75000000 </v>
   <v>       0.00000000       0.25000000       0.75000000 </v>
   <v>       0.00000000       0.50000000       0.00000000 </v>
   <v>       0.25000000       0.75000000       0.00000000 </v>
   <v>       0.25000000       0.50000000       0.25000000 </v>
   <v>       0.00000000       0.75000000       0.25000000 </v>
   <v>       0.00000000       0.50000000       0.50000000 </v>
   <v>       0.25000000       0.75000000       0.50000000 </v>
   <v>       0.25000000       0.50000000       0.75000000 </v>
   <v>       0.00000000       0.75000000       0.75000000 </v>
   <v>       0.50000000       0.00000000       0.00000000 </v>
   <v>       0.75000000       0.25000000       0.00000000 </v>
   <v>       0.75000000       0.00000000       0.25000000 </v>
   <v>       0.50000000       0.25000000       0.25000000 </v>
   <v>       0.50000000       0.00000000       0.50000000 </v>
   <v>       0.75000000       0.25000000       0.50000000 </v>
   <v>       0.75000000       0.00000000       0.75000000 </v>
   <v>       0.50000000       0.25000000       0.75000000 </v>
   <v>       0.50000000       0.50000000       0.00000000 </v>
   <v>       0.75000000       0.75000000       0.00000000 </v>
   <v>       0.75000000       0.50000000       0.25000000 </v>
   <v>       0.50000000       0.75000000       0.25000000 </v>
   <v>       0.50000000       0.50000000       0.50000000 </v>
   <v>       0.75000000       0.75000000       0.50000000 </v>
   <v>       0.75000000       0.50000000       0.75000000 </v>
   <v>       0.50000000       0.75000000       0.75000000 </v>
   <v>       0.25267761       0.25267761       0.25000000 </v>
   <v>       0.00000000       0.00000000       0.25000000 </v>
   <v>       0.00000000       0.25000000       0.00000000 </v>
   <v>       0.25000000       0.00000000       0.00000000 </v>
   <v>       0.25000000       0.25000000       0.75000000 </v>
   <v>       0.00000000       0.00000000       0.75000000 </v>
   <v>       0.00000000       0.25000000       0.50000000 </v>
   <v>       0.25000000       0.00000000       0.50000000 </v>
   <v>       0.25000000       0.75000000       0.25000000 </v>
   <v>       0.00000000       0.50000000       0.25000000 </v>
   <v>       0.00000000       0.75000000       0.00000000 </v>
   <v>       0.25000000       0.50000000       0.00000000 </v>
   <v>       0.25000000       0.75000000       0.75000000 </v>
   <v>       0.00000000       0.50000000       0.75000000 </v>
   <v>       0.00000000       0.75000000       0.50000000 </v>
   <v>       0.25000000       0.50000000       0.50000000 </v>
   <v>       0.75000000       0.25000000       0.25000000 </v>
   <v>       0.50000000       0.00000000       0.25000000 </v>
   <v>       0.50000000       0.25000000       0.00000000 </v>
   <v>       0.75000000       0.00000000       0.00000000 </v>
   <v>       0.75000000       0.25000000       0.75000000 </v>
   <v>       0.50000000       0.00000000       0.75000000 </v>
   <v>       0.50000000       0.25000000       0.50000000 </v>
   <v>       0.75000000       0.00000000       0.50000000 </v>
   <v>       0.75000000       0.75000000       0.25000000 </v>
   <v>       0.50000000       0.50000000       0.25000000 </v>
   <v>       0.50000000       0.75000000       0.00000000 </v>
   <v>       0.75000000       0.50000000       0.00000000 </v>
   <v>       0.75000000       0.75000000       0.75000000 </v>
   <v>       0.50000000       0.50000000       0.75000000 </v>
   <v>       0.50000000       0.75000000       0.50000000 </v>
   <v>       0.75000000       0.50000000       0.50000000 </v>
  </varray>
 </structure>
</modeling>
