  64  64   0   0
  0.2197554E+02  0.1120400E-08  0.1120400E-08  0.1120400E-08  0.5000000E-15
  1.000000000000000E-004
  CAR 
 unknown system                          
     11.04597208    -22.85487494  301     -0.56506803      1.00000000
    -22.855  0.0000E+00  0.0000E+00
    -22.742  0.0000E+00  0.0000E+00
    -22.629  0.0000E+00  0.0000E+00
    -22.516  0.0000E+00  0.0000E+00
    -22.403  0.0000E+00  0.0000E+00
    -22.290  0.0000E+00  0.0000E+00
    -22.177  0.0000E+00  0.0000E+00
    -22.064  0.0000E+00  0.0000E+00
    -21.951  0.0000E+00  0.0000E+00
    -21.838  0.0000E+00  0.0000E+00
    -21.725  0.0000E+00  0.0000E+00
    -21.612  0.0000E+00  0.0000E+00
    -21.499  0.0000E+00  0.0000E+00
    -21.386  0.6689E-05  0.7559E-06
    -21.273  0.1143E+04  0.1292E+03
    -21.160  0.5556E+03  0.1920E+03
    -21.047  0.0000E+00  0.1920E+03
    -20.934  0.0000E+00  0.1920E+03
    -20.821  0.0000E+00  0.1920E+03
    -20.708  0.0000E+00  0.1920E+03
    -20.595  0.0000E+00  0.1920E+03
    -20.482  0.0000E+00  0.1920E+03
    -20.369  0.0000E+00  0.1920E+03
    -20.256  0.0000E+00  0.1920E+03
    -20.143  0.0000E+00  0.1920E+03
    -20.030  0.0000E+00  0.1920E+03
    -19.917  0.0000E+00  0.1920E+03
    -19.804  0.0000E+00  0.1920E+03
    -19.691  0.0000E+00  0.1920E+03
    -19.578  0.0000E+00  0.1920E+03
    -19.465  0.0000E+00  0.1920E+03
    -19.352  0.0000E+00  0.1920E+03
    -19.239  0.0000E+00  0.1920E+03
    -19.126  0.0000E+00  0.1920E+03
    -19.013  0.0000E+00  0.1920E+03
    -18.900  0.0000E+00  0.1920E+03
    -18.787  0.0000E+00  0.1920E+03
    -18.674  0.0000E+00  0.1920E+03
    -18.561  0.0000E+00  0.1920E+03
    -18.448  0.0000E+00  0.1920E+03
    -18.335  0.0000E+00  0.1920E+03
    -18.222  0.0000E+00  0.1920E+03
    -18.109  0.0000E+00  0.1920E+03
    -17.996  0.0000E+00  0.1920E+03
    -17.883  0.0000E+00  0.1920E+03
    -17.770  0.0000E+00  0.1920E+03
    -17.657  0.0000E+00  0.1920E+03
    -17.544  0.0000E+00  0.1920E+03
    -17.431  0.0000E+00  0.1920E+03
    -17.318  0.0000E+00  0.1920E+03
    -17.205  0.0000E+00  0.1920E+03
    -17.092  0.0000E+00  0.1920E+03
    -16.979  0.0000E+00  0.1920E+03
    -16.866  0.0000E+00  0.1920E+03
    -16.753  0.0000E+00  0.1920E+03
    -16.640  0.0000E+00  0.1920E+03
    -16.527  0.0000E+00  0.1920E+03
    -16.414  0.0000E+00  0.1920E+03
    -16.301  0.0000E+00  0.1920E+03
    -16.188  0.0000E+00  0.1920E+03
    -16.075  0.0000E+00  0.1920E+03
    -15.962  0.0000E+00  0.1920E+03
    -15.849  0.0000E+00  0.1920E+03
    -15.736  0.0000E+00  0.1920E+03
    -15.623  0.0000E+00  0.1920E+03
    -15.510  0.0000E+00  0.1920E+03
    -15.397  0.0000E+00  0.1920E+03
    -15.284  0.0000E+00  0.1920E+03
    -15.171  0.0000E+00  0.1920E+03
    -15.058  0.0000E+00  0.1920E+03
    -14.945  0.0000E+00  0.1920E+03
    -14.832  0.0000E+00  0.1920E+03
    -14.719  0.0000E+00  0.1920E+03
    -14.606  0.0000E+00  0.1920E+03
    -14.493  0.0000E+00  0.1920E+03
    -14.380  0.0000E+00  0.1920E+03
    -14.267  0.0000E+00  0.1920E+03
    -14.154  0.0000E+00  0.1920E+03
    -14.041  0.0000E+00  0.1920E+03
    -13.928  0.0000E+00  0.1920E+03
    -13.815  0.0000E+00  0.1920E+03
    -13.702  0.0000E+00  0.1920E+03
    -13.589  0.0000E+00  0.1920E+03
    -13.476  0.1228E-15  0.1920E+03
    -13.363  0.8332E+00  0.1921E+03
    -13.250  0.1765E+02  0.1941E+03
    -13.137  0.4847E+02  0.1996E+03
    -13.024  0.1218E+03  0.2133E+03
    -12.911  0.3674E+03  0.2548E+03
    -12.798  0.1018E+02  0.2560E+03
    -12.685  0.0000E+00  0.2560E+03
    -12.572  0.0000E+00  0.2560E+03
    -12.459  0.0000E+00  0.2560E+03
    -12.346  0.0000E+00  0.2560E+03
    -12.233  0.0000E+00  0.2560E+03
    -12.120  0.0000E+00  0.2560E+03
    -12.007  0.0000E+00  0.2560E+03
    -11.894  0.0000E+00  0.2560E+03
    -11.781  0.0000E+00  0.2560E+03
    -11.668  0.0000E+00  0.2560E+03
    -11.555  0.0000E+00  0.2560E+03
    -11.442  0.0000E+00  0.2560E+03
    -11.329  0.0000E+00  0.2560E+03
    -11.216  0.0000E+00  0.2560E+03
    -11.103  0.0000E+00  0.2560E+03
    -10.990  0.0000E+00  0.2560E+03
    -10.877  0.0000E+00  0.2560E+03
    -10.764  0.0000E+00  0.2560E+03
    -10.651  0.0000E+00  0.2560E+03
    -10.538  0.0000E+00  0.2560E+03
    -10.425  0.0000E+00  0.2560E+03
    -10.312  0.0000E+00  0.2560E+03
    -10.199  0.0000E+00  0.2560E+03
    -10.086  0.0000E+00  0.2560E+03
     -9.973  0.0000E+00  0.2560E+03
     -9.860  0.0000E+00  0.2560E+03
     -9.747  0.0000E+00  0.2560E+03
     -9.634  0.0000E+00  0.2560E+03
     -9.521  0.0000E+00  0.2560E+03
     -9.408  0.0000E+00  0.2560E+03
     -9.295  0.0000E+00  0.2560E+03
     -9.182  0.0000E+00  0.2560E+03
     -9.069  0.0000E+00  0.2560E+03
     -8.956  0.0000E+00  0.2560E+03
     -8.843  0.0000E+00  0.2560E+03
     -8.730  0.0000E+00  0.2560E+03
     -8.617  0.0000E+00  0.2560E+03
     -8.504  0.0000E+00  0.2560E+03
     -8.391  0.0000E+00  0.2560E+03
     -8.278  0.0000E+00  0.2560E+03
     -8.165  0.0000E+00  0.2560E+03
     -8.052  0.0000E+00  0.2560E+03
     -7.939  0.0000E+00  0.2560E+03
     -7.825  0.0000E+00  0.2560E+03
     -7.712  0.0000E+00  0.2560E+03
     -7.599  0.0000E+00  0.2560E+03
     -7.486  0.0000E+00  0.2560E+03
     -7.373  0.0000E+00  0.2560E+03
     -7.260  0.0000E+00  0.2560E+03
     -7.147  0.0000E+00  0.2560E+03
     -7.034  0.0000E+00  0.2560E+03
     -6.921  0.0000E+00  0.2560E+03
     -6.808  0.0000E+00  0.2560E+03
     -6.695  0.0000E+00  0.2560E+03
     -6.582  0.0000E+00  0.2560E+03
     -6.469  0.0000E+00  0.2560E+03
     -6.356  0.0000E+00  0.2560E+03
     -6.243  0.0000E+00  0.2560E+03
     -6.130  0.0000E+00  0.2560E+03
     -6.017  0.0000E+00  0.2560E+03
     -5.904  0.0000E+00  0.2560E+03
     -5.791  0.0000E+00  0.2560E+03
     -5.678  0.0000E+00  0.2560E+03
     -5.565  0.0000E+00  0.2560E+03
     -5.452  0.0000E+00  0.2560E+03
     -5.339  0.0000E+00  0.2560E+03
     -5.226  0.0000E+00  0.2560E+03
     -5.113  0.0000E+00  0.2560E+03
     -5.000  0.0000E+00  0.2560E+03
     -4.887  0.0000E+00  0.2560E+03
     -4.774  0.0000E+00  0.2560E+03
     -4.661  0.0000E+00  0.2560E+03
     -4.548  0.0000E+00  0.2560E+03
     -4.435  0.0000E+00  0.2560E+03
     -4.322  0.0000E+00  0.2560E+03
     -4.209  0.0000E+00  0.2560E+03
     -4.096  0.0000E+00  0.2560E+03
     -3.983  0.0000E+00  0.2560E+03
     -3.870  0.0000E+00  0.2560E+03
     -3.757  0.0000E+00  0.2560E+03
     -3.644  0.0000E+00  0.2560E+03
     -3.531  0.0000E+00  0.2560E+03
     -3.418  0.0000E+00  0.2560E+03
     -3.305  0.0000E+00  0.2560E+03
     -3.192  0.0000E+00  0.2560E+03
     -3.079  0.0000E+00  0.2560E+03
     -2.966  0.0000E+00  0.2560E+03
     -2.853  0.0000E+00  0.2560E+03
     -2.740  0.1923E-01  0.2560E+03
     -2.627  0.8830E+01  0.2570E+03
     -2.514  0.1300E+02  0.2585E+03
     -2.401  0.8852E+02  0.2685E+03
     -2.288  0.7942E+02  0.2774E+03
     -2.175  0.1597E+03  0.2955E+03
     -2.062  0.7752E+02  0.3042E+03
     -1.949  0.5392E+02  0.3103E+03
     -1.836  0.5303E+02  0.3163E+03
     -1.723  0.8331E+02  0.3257E+03
     -1.610  0.2707E-11  0.3258E+03
     -1.497  0.4334E+02  0.3306E+03
     -1.384  0.2140E+03  0.3548E+03
     -1.271  0.3405E+02  0.3587E+03
     -1.158  0.2330E+03  0.3850E+03
     -1.045  0.1540E+03  0.4024E+03
     -0.932  0.2387E+03  0.4294E+03
     -0.819  0.7887E+02  0.4383E+03
     -0.706  0.7887E+02  0.4472E+03
     -0.593  0.6932E+01  0.4480E+03
     -0.480  0.0000E+00  0.4480E+03
     -0.367  0.0000E+00  0.4480E+03
     -0.254  0.0000E+00  0.4480E+03
     -0.141  0.0000E+00  0.4480E+03
     -0.028  0.0000E+00  0.4480E+03
      0.085  0.0000E+00  0.4480E+03
      0.198  0.0000E+00  0.4480E+03
      0.311  0.0000E+00  0.4480E+03
      0.424  0.0000E+00  0.4480E+03
      0.537  0.0000E+00  0.4480E+03
      0.650  0.0000E+00  0.4480E+03
      0.763  0.0000E+00  0.4480E+03
      0.876  0.0000E+00  0.4480E+03
      0.989  0.0000E+00  0.4480E+03
      1.102  0.0000E+00  0.4480E+03
      1.215  0.0000E+00  0.4480E+03
      1.328  0.0000E+00  0.4480E+03
      1.441  0.0000E+00  0.4480E+03
      1.554  0.0000E+00  0.4480E+03
      1.667  0.0000E+00  0.4480E+03
      1.780  0.0000E+00  0.4480E+03
      1.893  0.0000E+00  0.4480E+03
      2.006  0.0000E+00  0.4480E+03
      2.119  0.0000E+00  0.4480E+03
      2.232  0.0000E+00  0.4480E+03
      2.345  0.0000E+00  0.4480E+03
      2.458  0.0000E+00  0.4480E+03
      2.571  0.0000E+00  0.4480E+03
      2.684  0.0000E+00  0.4480E+03
      2.797  0.0000E+00  0.4480E+03
      2.910  0.0000E+00  0.4480E+03
      3.023  0.0000E+00  0.4480E+03
      3.136  0.0000E+00  0.4480E+03
      3.249  0.0000E+00  0.4480E+03
      3.362  0.0000E+00  0.4480E+03
      3.475  0.0000E+00  0.4480E+03
      3.588  0.0000E+00  0.4480E+03
      3.701  0.0000E+00  0.4480E+03
      3.814  0.0000E+00  0.4480E+03
      3.927  0.0000E+00  0.4480E+03
      4.040  0.0000E+00  0.4480E+03
      4.153  0.0000E+00  0.4480E+03
      4.266  0.1558E-06  0.4480E+03
      4.379  0.2205E+01  0.4482E+03
      4.492  0.7083E-02  0.4482E+03
      4.605  0.0000E+00  0.4482E+03
      4.718  0.0000E+00  0.4482E+03
      4.831  0.0000E+00  0.4482E+03
      4.944  0.3946E-06  0.4483E+03
      5.057  0.1316E+02  0.4497E+03
      5.170  0.1136E+00  0.4498E+03
      5.283  0.0000E+00  0.4498E+03
      5.396  0.0000E+00  0.4498E+03
      5.509  0.5570E+00  0.4498E+03
      5.622  0.2599E+02  0.4527E+03
      5.735  0.2180E-08  0.4528E+03
      5.848  0.1511E+02  0.4545E+03
      5.961  0.2588E+01  0.4548E+03
      6.074  0.0000E+00  0.4548E+03
      6.187  0.0000E+00  0.4548E+03
      6.300  0.3576E-04  0.4548E+03
      6.413  0.1336E+02  0.4563E+03
      6.526  0.8760E+01  0.4572E+03
      6.639  0.2631E+02  0.4602E+03
      6.752  0.7920E+02  0.4692E+03
      6.865  0.5655E+02  0.4756E+03
      6.978  0.1289E+02  0.4770E+03
      7.091  0.4253E+01  0.4775E+03
      7.204  0.2783E+01  0.4778E+03
      7.317  0.3880E+01  0.4783E+03
      7.430  0.7877E+02  0.4872E+03
      7.543  0.1616E+03  0.5054E+03
      7.656  0.1182E+02  0.5068E+03
      7.769  0.2654E+02  0.5097E+03
      7.882  0.1752E-01  0.5098E+03
      7.995  0.5308E+02  0.5157E+03
      8.108  0.2418E-03  0.5158E+03
      8.221  0.1335E+02  0.5173E+03
      8.334  0.9266E+02  0.5277E+03
      8.447  0.1762E+00  0.5278E+03
      8.560  0.1274E+03  0.5421E+03
      8.673  0.3193E+02  0.5457E+03
      8.786  0.8386E-08  0.5458E+03
      8.899  0.6455E+02  0.5530E+03
      9.012  0.1303E+03  0.5678E+03
      9.125  0.1531E+02  0.5695E+03
      9.238  0.1133E+02  0.5708E+03
      9.351  0.3292E+02  0.5745E+03
      9.464  0.4488E+00  0.5746E+03
      9.577  0.1283E+02  0.5760E+03
      9.690  0.0000E+00  0.5760E+03
      9.803  0.0000E+00  0.5760E+03
      9.916  0.0000E+00  0.5760E+03
     10.029  0.0000E+00  0.5760E+03
     10.142  0.0000E+00  0.5760E+03
     10.255  0.0000E+00  0.5760E+03
     10.368  0.0000E+00  0.5760E+03
     10.481  0.0000E+00  0.5760E+03
     10.594  0.0000E+00  0.5760E+03
     10.707  0.0000E+00  0.5760E+03
     10.820  0.0000E+00  0.5760E+03
     10.933  0.0000E+00  0.5760E+03
     11.046  0.0000E+00  0.5760E+03
