       N       E                     dE             d eps       ncg     rms          rms(c)
DAV:   1     0.432196577599E+04    0.43220E+04   -0.17164E+05  4608   0.125E+03
DAV:   2     0.363894352296E+03   -0.39581E+04   -0.37658E+04  5120   0.368E+02
DAV:   3    -0.206175008995E+03   -0.57007E+03   -0.56581E+03  5600   0.156E+02
DAV:   4    -0.228191749777E+03   -0.22017E+02   -0.21915E+02  5536   0.331E+01
DAV:   5    -0.229003251989E+03   -0.81150E+00   -0.81010E+00  5600   0.616E+00    0.106E+01
DAV:   6    -0.224138904049E+03    0.48643E+01   -0.94682E+00  5728   0.527E+00    0.776E+00
DAV:   7    -0.223777283677E+03    0.36162E+00   -0.20720E+00  6272   0.236E+00    0.533E+00
DAV:   8    -0.223902509826E+03   -0.12523E+00   -0.26585E-01  5344   0.123E+00    0.142E+00
DAV:   9    -0.223896929156E+03    0.55807E-02   -0.11546E-02  5664   0.263E-01    0.598E-01
DAV:  10    -0.223901223115E+03   -0.42940E-02   -0.18218E-02  5408   0.229E-01    0.284E-01
DAV:  11    -0.223900512668E+03    0.71045E-03   -0.15373E-03  5888   0.809E-02    0.899E-02
DAV:  12    -0.223900469815E+03    0.42852E-04   -0.16082E-04  5856   0.230E-02    0.147E-02
DAV:  13    -0.223900470482E+03   -0.66639E-06   -0.20534E-05  5568   0.761E-03    0.344E-03
DAV:  14    -0.223900471527E+03   -0.10455E-05   -0.22811E-06  5728   0.354E-03    0.950E-03
DAV:  15    -0.223900472998E+03   -0.14708E-05   -0.56340E-07  5504   0.208E-03    0.313E-03
DAV:  16    -0.223900473478E+03   -0.48015E-06   -0.16825E-07  5696   0.977E-04    0.570E-04
DAV:  17    -0.223900473451E+03    0.27161E-07   -0.73825E-09  3808   0.776E-04    0.174E-04
DAV:  18    -0.223900473560E+03   -0.10861E-06   -0.16722E-08  4320   0.543E-04    0.571E-04
DAV:  19    -0.223900473545E+03    0.14719E-07   -0.92171E-09  3104   0.349E-04    0.457E-04
DAV:  20    -0.223900473506E+03    0.38781E-07   -0.26076E-09  3168   0.351E-04    0.322E-04
DAV:  21    -0.223900473445E+03    0.61023E-07   -0.38877E-09  3072   0.160E-04    0.150E-04
DAV:  22    -0.223900473451E+03   -0.62573E-08   -0.12305E-09  3040   0.141E-04
   1 F= -.22390047E+03 E0= -.22390047E+03  d E =-.694259E-13
