 vasp.6.3.2 27Jun22 (build Oct 14 2022 12:13:54) complex                        
  
 executed on             LinuxIFC date 2025.08.28  22:04:05
 running on   32 total cores
 distrk:  each k-point on   32 cores,    1 groups
 distr:  one band on NCORE=   1 cores,   32 groups


--------------------------------------------------------------------------------------------------------


 INCAR:
   ENCUT = 341.213600
   SIGMA = 0.020000
   EDIFF = 1.00e-08
   GGA = PS
   PREC = Accurate
   IALGO = 38
   IBRION = -1
   ISMEAR = 0
   NELMIN = 5
   ADDGRID = .TRUE.
   LCHARG = .FALSE.
   LWAVE = .FALSE.
   LREAL = .FALSE.

 POTCAR:    PAW_PBE Na_pv 19Sep2006               
 POTCAR:    PAW_PBE Cl 06Sep2000                  
 -----------------------------------------------------------------------------
|                                                                             |
|           W    W    AA    RRRRR   N    N  II  N    N   GGGG   !!!           |
|           W    W   A  A   R    R  NN   N  II  NN   N  G    G  !!!           |
|           W    W  A    A  R    R  N N  N  II  N N  N  G       !!!           |
|           W WW W  AAAAAA  RRRRR   N  N N  II  N  N N  G  GGG   !            |
|           WW  WW  A    A  R   R   N   NN  II  N   NN  G    G                |
|           W    W  A    A  R    R  N    N  II  N    N   GGGG   !!!           |
|                                                                             |
|     For optimal performance we recommend to set                             |
|       NCORE = 2 up to number-of-cores-per-socket                            |
|     NCORE specifies how many cores store one orbital (NPAR=cpu/NCORE).      |
|     This setting can greatly improve the performance of VASP for DFT.       |
|     The default, NCORE=1 might be grossly inefficient on modern             |
|     multi-core architectures or massively parallel machines. Do your        |
|     own testing! More info at https://www.vasp.at/wiki/index.php/NCORE      |
|     Unfortunately you need to use the default for GW and RPA                |
|     calculations (for HF NCORE is supported but not extensively tested      |
|     yet).                                                                   |
|                                                                             |
 -----------------------------------------------------------------------------

 POTCAR:    PAW_PBE Na_pv 19Sep2006               
   SHA256 =  6a2f546d9e11350984debacf3dc457d8cffc0868e817d445faca461816a32b94 Na_pv/POTCAR          
   COPYR  = (c) Copyright 19Sep2006 Georg Kresse                                                    
   COPYR  = This file is part of the software VASP. Any use, copying, and all other rights are regul
   COPYR  = If you do not have a valid VASP license, you may not use, copy or distribute this file. 
   VRHFIN =Na: p6s1                                                                                 
   LEXCH  = PE                                                                                      
   EATOM  =   766.0439 eV,   56.3026 Ry                                                             
                                                                                                    
   TITEL  = PAW_PBE Na_pv 19Sep2006                                                                 
   LULTRA =        F    use ultrasoft PP ?                                                          
   IUNSCR =        1    unscreen: 0-lin 1-nonlin 2-no                                               
   RPACOR =    1.800    partial core radius                                                         
   POMASS =   22.990; ZVAL   =    7.000    mass and valenz                                          
   RCORE  =    2.200    outmost cutoff radius                                                       
   RWIGS  =    2.200; RWIGS  =    1.164    wigner-seitz radius (au A)                               
   ENMAX  =  259.561; ENMIN  =  194.671 eV                                                          
   ICORE  =        2    local potential                                                             
   LCOR   =        T    correct aug charges                                                         
   LPAW   =        T    paw PP                                                                      
   EAUG   =  368.056                                                                                
   DEXC   =    0.000                                                                                
   RMAX   =    2.245    core radius for proj-oper                                                   
   RAUG   =    1.300    factor for augmentation sphere                                              
   RDEP   =    2.259    radius for radial grids                                                     
   RDEPT  =    1.738    core radius for aug-charge                                                  
                                                                                                    
   Atomic configuration                                                                             
    5 entries                                                                                       
     n  l   j            E        occ.                                                              
     1  0  0.50     -1033.6933   2.0000                                                             
     2  0  0.50       -56.7526   2.0000                                                             
     2  1  1.50       -28.6721   6.0000                                                             
     3  0  0.50        -2.7440   1.0000                                                             
     3  2  1.50        -1.3606   0.0000                                                             
   Description                                                                                      
     l       E           TYP  RCUT    TYP  RCUT                                                     
     1    -28.6720912     23  2.000                                                                 
     1      6.8029130     23  2.000                                                                 
     0     -2.7439560     23  2.200                                                                 
     0     34.0145650     23  2.200                                                                 
     2     -1.3605826     23  2.200                                                                 
  local pseudopotential read in
  partial core-charges read in
  partial kinetic energy density read in
  atomic valenz-charges read in
  non local Contribution for L=           1  read in
    real space projection operators read in
  non local Contribution for L=           1  read in
    real space projection operators read in
  non local Contribution for L=           0  read in
    real space projection operators read in
  non local Contribution for L=           0  read in
    real space projection operators read in
    PAW grid and wavefunctions read in
 
   number of l-projection  operators is LMAX  =           4
   number of lm-projection operators is LMMAX =           8
 
 POTCAR:    PAW_PBE Cl 06Sep2000                  
   SHA256 =  9f1b6e6ed4247ac726a768b330d26d7667cc3c95a39ff49c1d064c2d9dcce931 Cl/POTCAR             
   COPYR  = (c) Copyright 06Sep2000 Georg Kresse                                                    
   COPYR  = This file is part of the software VASP. Any use, copying, and all other rights are regul
   COPYR  = If you do not have a valid VASP license, you may not use, copy or distribute this file. 
   VRHFIN =Cl: s2p5                                                                                 
   LEXCH  = PE                                                                                      
   EATOM  =   409.7259 eV,   30.1140 Ry                                                             
                                                                                                    
   TITEL  = PAW_PBE Cl 06Sep2000                                                                    
   LULTRA =        F    use ultrasoft PP ?                                                          
   IUNSCR =        1    unscreen: 0-lin 1-nonlin 2-no                                               
   RPACOR =    1.500    partial core radius                                                         
   POMASS =   35.453; ZVAL   =    7.000    mass and valenz                                          
   RCORE  =    1.900    outmost cutoff radius                                                       
   RWIGS  =    2.100; RWIGS  =    1.111    wigner-seitz radius (au A)                               
   ENMAX  =  262.472; ENMIN  =  196.854 eV                                                          
   ICORE  =        2    local potential                                                             
   LCOR   =        T    correct aug charges                                                         
   LPAW   =        T    paw PP                                                                      
   EAUG   =  356.192                                                                                
   DEXC   =    0.000                                                                                
   RMAX   =    1.945    core radius for proj-oper                                                   
   RAUG   =    1.300    factor for augmentation sphere                                              
   RDEP   =    2.020    radius for radial grids                                                     
   RDEPT  =    1.678    core radius for aug-charge                                                  
                                                                                                    
   Atomic configuration                                                                             
    6 entries                                                                                       
     n  l   j            E        occ.                                                              
     1  0  0.50     -2751.1850   2.0000                                                             
     2  0  0.50      -252.6861   2.0000                                                             
     2  1  1.50      -191.6157   6.0000                                                             
     3  0  0.50       -20.6916   2.0000                                                             
     3  1  0.50        -8.5949   5.0000                                                             
     3  2  1.50        -8.1635   0.0000                                                             
   Description                                                                                      
     l       E           TYP  RCUT    TYP  RCUT                                                     
     0    -20.6915656     23  1.900                                                                 
     0    -22.0521482     23  1.900                                                                 
     1     -8.5948577     23  1.900                                                                 
     1     -5.3847331     23  1.900                                                                 
     2     -8.1634956     23  1.900                                                                 
  local pseudopotential read in
  partial core-charges read in
  partial kinetic energy density read in
  atomic valenz-charges read in
  non local Contribution for L=           0  read in
    real space projection operators read in
  non local Contribution for L=           0  read in
    real space projection operators read in
  non local Contribution for L=           1  read in
    real space projection operators read in
  non local Contribution for L=           1  read in
    real space projection operators read in
    PAW grid and wavefunctions read in
 
   number of l-projection  operators is LMAX  =           4
   number of lm-projection operators is LMMAX =           8
 
 -----------------------------------------------------------------------------
|                                                                             |
|               ----> ADVICE to this user running VASP <----                  |
|                                                                             |
|     You have a (more or less) 'large supercell' and for larger cells it     |
|     might be more efficient to use real-space projection operators.         |
|     Therefore, try LREAL= Auto in the INCAR file.                           |
|     Mind: For very accurate calculation, you might also keep the            |
|     reciprocal projection scheme (i.e. LREAL=.FALSE.).                      |
|                                                                             |
 -----------------------------------------------------------------------------

 -----------------------------------------------------------------------------
|                                                                             |
|               ----> ADVICE to this user running VASP <----                  |
|                                                                             |
|     You enforced a specific xc type in the INCAR file but a different       |
|     type was found in the POTCAR file.                                      |
|     I HOPE YOU KNOW WHAT YOU ARE DOING!                                     |
|                                                                             |
 -----------------------------------------------------------------------------

  PAW_PBE Na_pv 19Sep2006               :
 energy of atom  1       EATOM= -766.0439
 kinetic energy error for atom=    0.0189 (will be added to EATOM!!)
  PAW_PBE Cl 06Sep2000                  :
 energy of atom  2       EATOM= -409.7259
 kinetic energy error for atom=    0.0106 (will be added to EATOM!!)
 
 
 POSCAR: Na Cl
  positions in cartesian coordinates
  No initial velocities read in
 exchange correlation table for  LEXCH =       14
   RHO(1)=    0.500       N(1)  =     2000
   RHO(2)=  100.500       N(2)  =     4000
 


--------------------------------------------------------------------------------------------------------


 ion  position               nearest neighbor table
   1  0.003  0.000  0.000-
   2  0.250  0.250  0.000-
   3  0.250  0.000  0.250-
   4  0.000  0.250  0.250-
   5  0.000  0.000  0.500-
   6  0.250  0.250  0.500-
   7  0.250  0.000  0.750-
   8  0.000  0.250  0.750-
   9  0.000  0.500  0.000-
  10  0.250  0.750  0.000-
  11  0.250  0.500  0.250-
  12  0.000  0.750  0.250-
  13  0.000  0.500  0.500-
  14  0.250  0.750  0.500-
  15  0.250  0.500  0.750-
  16  0.000  0.750  0.750-
  17  0.500  0.000  0.000-
  18  0.750  0.250  0.000-
  19  0.750  0.000  0.250-
  20  0.500  0.250  0.250-
  21  0.500  0.000  0.500-
  22  0.750  0.250  0.500-
  23  0.750  0.000  0.750-
  24  0.500  0.250  0.750-
  25  0.500  0.500  0.000-
  26  0.750  0.750  0.000-
  27  0.750  0.500  0.250-
  28  0.500  0.750  0.250-
  29  0.500  0.500  0.500-
  30  0.750  0.750  0.500-
  31  0.750  0.500  0.750-
  32  0.500  0.750  0.750-
  33  0.250  0.250  0.250-
  34  0.997  0.000  0.250-
  35  0.000  0.250  0.000-
  36  0.250  0.000  0.000-
  37  0.250  0.250  0.750-
  38  0.000  0.000  0.750-
  39  0.000  0.250  0.500-
  40  0.250  0.000  0.500-
  41  0.250  0.750  0.250-
  42  0.000  0.500  0.250-
  43  0.000  0.750  0.000-
  44  0.250  0.500  0.000-
  45  0.250  0.750  0.750-
  46  0.000  0.500  0.750-
  47  0.000  0.750  0.500-
  48  0.250  0.500  0.500-
  49  0.750  0.250  0.250-
  50  0.500  0.000  0.250-
  51  0.500  0.250  0.000-
  52  0.750  0.000  0.000-
  53  0.750  0.250  0.750-
  54  0.500  0.000  0.750-
  55  0.500  0.250  0.500-
  56  0.750  0.000  0.500-
  57  0.750  0.750  0.250-
  58  0.500  0.500  0.250-
  59  0.500  0.750  0.000-
  60  0.750  0.500  0.000-
  61  0.750  0.750  0.750-
  62  0.500  0.500  0.750-
  63  0.500  0.750  0.500-
  64  0.750  0.500  0.500-
 
  LATTYP: Found a simple cubic cell.
 ALAT       =    11.2040023600
  
  Lattice vectors:
  
 A1 = (  11.2040023600,   0.0000000000,   0.0000000000)
 A2 = (   0.0000000000,  11.2040023600,   0.0000000000)
 A3 = (   0.0000000000,   0.0000000000,  11.2040023600)


Analysis of symmetry for initial positions (statically):
=====================================================================
 Subroutine PRICEL returns:
 Original cell was already a primitive cell.
 

 Routine SETGRP: Setting up the symmetry group for a 
 simple cubic supercell.


 Subroutine GETGRP returns: Found  2 space group operations
 (whereof  2 operations were pure point group operations)
 out of a pool of 48 trial point group operations.


The static configuration has the point symmetry C_1h.


Analysis of symmetry for dynamics (positions and initial velocities):
=====================================================================
 Subroutine PRICEL returns:
 Original cell was already a primitive cell.
 

 Routine SETGRP: Setting up the symmetry group for a 
 simple cubic supercell.


 Subroutine GETGRP returns: Found  2 space group operations
 (whereof  2 operations were pure point group operations)
 out of a pool of 48 trial point group operations.


The dynamic configuration has the point symmetry C_1h.


 Subroutine INISYM returns: Found  2 space group operations
 (whereof  2 operations are pure point group operations),
 and found     1 'primitive' translations


----------------------------------------------------------------------------------------

                                     Primitive cell                                     

  volume of cell :    1406.4347

  direct lattice vectors                    reciprocal lattice vectors
    11.204002360  0.000000000  0.000000000     0.089253819  0.000000000  0.000000000
     0.000000000 11.204002360  0.000000000     0.000000000  0.089253819  0.000000000
     0.000000000  0.000000000 11.204002360     0.000000000  0.000000000  0.089253819

  length of vectors
    11.204002360 11.204002360 11.204002360     0.089253819  0.089253819  0.089253819

  position of ions in fractional coordinates (direct lattice)
     0.002677615  0.000000000  0.000000000
     0.250000000  0.250000000  0.000000000
     0.250000000  0.000000000  0.250000000
     0.000000000  0.250000000  0.250000000
     0.000000000  0.000000000  0.500000000
     0.250000000  0.250000000  0.500000000
     0.250000000  0.000000000  0.750000000
     0.000000000  0.250000000  0.750000000
     0.000000000  0.500000000  0.000000000
     0.250000000  0.750000000  0.000000000
     0.250000000  0.500000000  0.250000000
     0.000000000  0.750000000  0.250000000
     0.000000000  0.500000000  0.500000000
     0.250000000  0.750000000  0.500000000
     0.250000000  0.500000000  0.750000000
     0.000000000  0.750000000  0.750000000
     0.500000000  0.000000000  0.000000000
     0.750000000  0.250000000  0.000000000
     0.750000000  0.000000000  0.250000000
     0.500000000  0.250000000  0.250000000
     0.500000000  0.000000000  0.500000000
     0.750000000  0.250000000  0.500000000
     0.750000000  0.000000000  0.750000000
     0.500000000  0.250000000  0.750000000
     0.500000000  0.500000000  0.000000000
     0.750000000  0.750000000  0.000000000
     0.750000000  0.500000000  0.250000000
     0.500000000  0.750000000  0.250000000
     0.500000000  0.500000000  0.500000000
     0.750000000  0.750000000  0.500000000
     0.750000000  0.500000000  0.750000000
     0.500000000  0.750000000  0.750000000
     0.250000000  0.250000000  0.250000000
     0.997322385  0.000000000  0.250000000
     0.000000000  0.250000000  0.000000000
     0.250000000  0.000000000  0.000000000
     0.250000000  0.250000000  0.750000000
     0.000000000  0.000000000  0.750000000
     0.000000000  0.250000000  0.500000000
     0.250000000  0.000000000  0.500000000
     0.250000000  0.750000000  0.250000000
     0.000000000  0.500000000  0.250000000
     0.000000000  0.750000000  0.000000000
     0.250000000  0.500000000  0.000000000
     0.250000000  0.750000000  0.750000000
     0.000000000  0.500000000  0.750000000
     0.000000000  0.750000000  0.500000000
     0.250000000  0.500000000  0.500000000
     0.750000000  0.250000000  0.250000000
     0.500000000  0.000000000  0.250000000
     0.500000000  0.250000000  0.000000000
     0.750000000  0.000000000  0.000000000
     0.750000000  0.250000000  0.750000000
     0.500000000  0.000000000  0.750000000
     0.500000000  0.250000000  0.500000000
     0.750000000  0.000000000  0.500000000
     0.750000000  0.750000000  0.250000000
     0.500000000  0.500000000  0.250000000
     0.500000000  0.750000000  0.000000000
     0.750000000  0.500000000  0.000000000
     0.750000000  0.750000000  0.750000000
     0.500000000  0.500000000  0.750000000
     0.500000000  0.750000000  0.500000000
     0.750000000  0.500000000  0.500000000

  ion indices of the primitive-cell ions
   primitive index   ion index
                 1           1
                 2           2
                 3           3
                 4           4
                 5           5
                 6           6
                 7           7
                 8           8
                 9           9
                10          10
                11          11
                12          12
                13          13
                14          14
                15          15
                16          16
                17          17
                18          18
                19          19
                20          20
                21          21
                22          22
                23          23
                24          24
                25          25
                26          26
                27          27
                28          28
                29          29
                30          30
                31          31
                32          32
                33          33
                34          34
                35          35
                36          36
                37          37
                38          38
                39          39
                40          40
                41          41
                42          42
                43          43
                44          44
                45          45
                46          46
                47          47
                48          48
                49          49
                50          50
                51          51
                52          52
                53          53
                54          54
                55          55
                56          56
                57          57
                58          58
                59          59
                60          60
                61          61
                62          62
                63          63
                64          64

----------------------------------------------------------------------------------------

 
 
 KPOINTS: KPOINTS created by Atomic Simulation Env

Automatic generation of k-mesh.
 Grid dimensions read from file:
 generate k-points for:    2    2    2

 Generating k-lattice:

  Cartesian coordinates                     Fractional coordinates (reciprocal lattice)
     0.044626910  0.000000000  0.000000000     0.500000000  0.000000000  0.000000000
     0.000000000  0.044626910  0.000000000     0.000000000  0.500000000  0.000000000
     0.000000000  0.000000000  0.044626910     0.000000000  0.000000000  0.500000000

  Length of vectors
     0.044626910  0.044626910  0.044626910

  Shift w.r.t. Gamma in fractional coordinates (k-lattice)
     0.000000000  0.000000000  0.000000000

 
 Subroutine IBZKPT returns following result:
 ===========================================
 
 Found      8 irreducible k-points:
 
 Following reciprocal coordinates:
            Coordinates               Weight
  0.000000  0.000000  0.000000      1.000000
  0.500000  0.000000  0.000000      1.000000
  0.000000  0.500000  0.000000      1.000000
  0.000000  0.000000  0.500000      1.000000
  0.500000  0.500000  0.000000      1.000000
  0.000000  0.500000  0.500000      1.000000
  0.500000  0.000000  0.500000      1.000000
  0.500000  0.500000  0.500000      1.000000
 
 Following cartesian coordinates:
            Coordinates               Weight
  0.000000  0.000000  0.000000      1.000000
  0.044627  0.000000  0.000000      1.000000
  0.000000  0.044627  0.000000      1.000000
  0.000000  0.000000  0.044627      1.000000
  0.044627  0.044627  0.000000      1.000000
  0.000000  0.044627  0.044627      1.000000
  0.044627  0.000000  0.044627      1.000000
  0.044627  0.044627  0.044627      1.000000
 


--------------------------------------------------------------------------------------------------------




 Dimension of arrays:
   k-points           NKPTS =      8   k-points in BZ     NKDIM =      8   number of bands    NBANDS=    288
   number of dos      NEDOS =    301   number of ions     NIONS =     64
   non local maximal  LDIM  =      4   non local SUM 2l+1 LMDIM =      8
   total plane-waves  NPLWV = 343000
   max r-space proj   IRMAX =      1   max aug-charges    IRDMAX=  56280
   dimension x,y,z NGX =    70 NGY =   70 NGZ =   70
   dimension x,y,z NGXF=   140 NGYF=  140 NGZF=  140
   support grid    NGXF=   280 NGYF=  280 NGZF=  280
   ions per type =              32  32
   NGX,Y,Z   is equivalent  to a cutoff of  10.39, 10.39, 10.39 a.u.
   NGXF,Y,Z  is equivalent  to a cutoff of  20.77, 20.77, 20.77 a.u.

 SYSTEM =  unknown system                          
 POSCAR =  Na Cl                                   

 Startparameter for this run:
   NWRITE =      2    write-flag & timer
   PREC   = accura    normal or accurate (medium, high low for compatibility)
   ISTART =      0    job   : 0-new  1-cont  2-samecut
   ICHARG =      2    charge: 1-file 2-atom 10-const
   ISPIN  =      1    spin polarized calculation?
   LNONCOLLINEAR =      F non collinear calculations
   LSORBIT =      F    spin-orbit coupling
   INIWAV =      1    electr: 0-lowe 1-rand  2-diag
   LASPH  =      F    aspherical Exc in radial PAW
 Electronic Relaxation 1
   ENCUT  =  341.2 eV  25.08 Ry    5.01 a.u.  16.87 16.87 16.87*2*pi/ulx,y,z
   ENINI  =  341.2     initial cutoff
   ENAUG  =  368.1 eV  augmentation charge cutoff
   NELM   =     60;   NELMIN=  5; NELMDL= -5     # of ELM steps 
   EDIFF  = 0.1E-07   stopping-criterion for ELM
   LREAL  =      F    real-space projection
   NLSPLINE    = F    spline interpolate recip. space projectors
   LCOMPAT=      F    compatible to vasp.4.4
   GGA_COMPAT  = T    GGA compatible to vasp.4.4-vasp.4.6
   LMAXPAW     = -100 max onsite density
   LMAXMIX     =    2 max onsite mixed and CHGCAR
   VOSKOWN=      0    Vosko Wilk Nusair interpolation
   ROPT   =    0.00000   0.00000
 Ionic relaxation
   EDIFFG = 0.1E-06   stopping-criterion for IOM
   NSW    =      0    number of steps for IOM
   NBLOCK =      1;   KBLOCK =      1    inner block; outer block 
   IBRION =     -1    ionic relax: 0-MD 1-quasi-New 2-CG
   NFREE  =      0    steps in history (QN), initial steepest desc. (CG)
   ISIF   =      2    stress and relaxation
   IWAVPR =     10    prediction:  0-non 1-charg 2-wave 3-comb
   ISYM   =      2    0-nonsym 1-usesym 2-fastsym
   LCORR  =      T    Harris-Foulkes like correction to forces

   POTIM  = 0.5000    time-step for ionic-motion
   TEIN   =    0.0    initial temperature
   TEBEG  =    0.0;   TEEND  =   0.0 temperature during run
   SMASS  =  -3.00    Nose mass-parameter (am)
   estimated Nose-frequenzy (Omega)   =  0.10E-29 period in steps = 0.13E+47 mass=  -0.287E-26a.u.
   SCALEE = 1.0000    scale energy and forces
   NPACO  =    256;   APACO  = 10.0  distance and # of slots for P.C.
   PSTRESS=    0.0 pullay stress

  Mass of Ions in am
   POMASS =  22.99 35.45
  Ionic Valenz
   ZVAL   =   7.00  7.00
  Atomic Wigner-Seitz radii
   RWIGS  =  -1.00 -1.00
  virtual crystal weights 
   VCA    =   1.00  1.00
   NELECT =     448.0000    total number of electrons
   NUPDOWN=      -1.0000    fix difference up-down

 DOS related values:
   EMIN   =  10.00;   EMAX   =-10.00  energy-range for DOS
   EFERMI =   0.00
   ISMEAR =     0;   SIGMA  =   0.02  broadening in eV -4-tet -1-fermi 0-gaus

 Electronic relaxation 2 (details)
   IALGO  =     38    algorithm
   LDIAG  =      T    sub-space diagonalisation (order eigenvalues)
   LSUBROT=      F    optimize rotation matrix (better conditioning)
   TURBO    =      0    0=normal 1=particle mesh
   IRESTART =      0    0=no restart 2=restart with 2 vectors
   NREBOOT  =      0    no. of reboots
   NMIN     =      0    reboot dimension
   EREF     =   0.00    reference energy to select bands
   IMIX   =      4    mixing-type and parameters
     AMIX     =   0.40;   BMIX     =  1.00
     AMIX_MAG =   1.60;   BMIX_MAG =  1.00
     AMIN     =   0.10
     WC   =   100.;   INIMIX=   1;  MIXPRE=   1;  MAXMIX= -45

 Intra band minimization:
   WEIMIN = 0.0000     energy-eigenvalue tresh-hold
   EBREAK =  0.87E-11  absolut break condition
   DEPER  =   0.30     relativ break condition  

   TIME   =   0.40     timestep for ELM

  volume/ion in A,a.u.               =      21.98       148.30
  Fermi-wavevector in a.u.,A,eV,Ry     =   1.118049  2.112807 17.007750  1.250034
  Thomas-Fermi vector in A             =   2.254677
 
 Write flags
   LWAVE        =      F    write WAVECAR
   LDOWNSAMPLE  =      F    k-point downsampling of WAVECAR
   LCHARG       =      F    write CHGCAR
   LVTOT        =      F    write LOCPOT, total local potential
   LVHAR        =      F    write LOCPOT, Hartree potential only
   LELF         =      F    write electronic localiz. function (ELF)
   LORBIT       =      0    0 simple, 1 ext, 2 COOP (PROOUT), +10 PAW based schemes


 Dipole corrections
   LMONO  =      F    monopole corrections only (constant potential shift)
   LDIPOL =      F    correct potential (dipole corrections)
   IDIPOL =      0    1-x, 2-y, 3-z, 4-all directions 
   EPSILON=  1.0000000 bulk dielectric constant

 Exchange correlation treatment:
   GGA     =    PS    GGA type
   LEXCH   =    14    internal setting for exchange type
   LIBXC   =     F    Libxc                    
   VOSKOWN =     0    Vosko Wilk Nusair interpolation
   LHFCALC =     F    Hartree Fock is set to
   LHFONE  =     F    Hartree Fock one center treatment
   AEXX    =    0.0000 exact exchange contribution

 Linear response parameters
   LEPSILON=     F    determine dielectric tensor
   LRPA    =     F    only Hartree local field effects (RPA)
   LNABLA  =     F    use nabla operator in PAW spheres
   LVEL    =     F    velocity operator in full k-point grid
   CSHIFT  =0.1000    complex shift for real part using Kramers Kronig
   OMEGAMAX=  -1.0    maximum frequency
   DEG_THRESHOLD= 0.2000000E-02 threshold for treating states as degnerate
   RTIME   =   -0.100 relaxation time in fs
  (WPLASMAI=    0.000 imaginary part of plasma frequency in eV, 0.658/RTIME)
   DFIELD  = 0.0000000 0.0000000 0.0000000 field for delta impulse in time
 
  Optional k-point grid parameters
   LKPOINTS_OPT  =     F    use optional k-point grid
   KPOINTS_OPT_MODE=     1    mode for optional k-point grid
 
 Orbital magnetization related:
   ORBITALMAG=     F  switch on orbital magnetization
   LCHIMAG   =     F  perturbation theory with respect to B field
   DQ        =  0.001000  dq finite difference perturbation B field
   LLRAUG    =     F  two centre corrections for induced B field



--------------------------------------------------------------------------------------------------------


 Static calculation
 charge density and potential will be updated during run
 non-spin polarized calculation
 Variant of blocked Davidson
 Davidson routine will perform the subspace rotation
 perform sub-space diagonalisation
    after iterative eigenvector-optimisation
 modified Broyden-mixing scheme, WC =      100.0
 initial mixing is a Kerker type mixing with AMIX =  0.4000 and BMIX =      1.0000
 Hartree-type preconditioning will be used
 using additional bands           64
 reciprocal scheme for non local part
 use partial core corrections
 calculate Harris-corrections to forces 
   (improved forces if not selfconsistent)
 use gradient corrections 
 use of overlap-Matrix (Vanderbilt PP)
 Gauss-broadening in eV      SIGMA  =   0.02


--------------------------------------------------------------------------------------------------------


  energy-cutoff  :      341.21
  volume of cell :     1406.43
      direct lattice vectors                 reciprocal lattice vectors
    11.204002360  0.000000000  0.000000000     0.089253819  0.000000000  0.000000000
     0.000000000 11.204002360  0.000000000     0.000000000  0.089253819  0.000000000
     0.000000000  0.000000000 11.204002360     0.000000000  0.000000000  0.089253819

  length of vectors
    11.204002360 11.204002360 11.204002360     0.089253819  0.089253819  0.089253819


 
 k-points in units of 2pi/SCALE and weight: KPOINTS created by Atomic Simulation Env
   0.00000000  0.00000000  0.00000000       0.125
   0.04462691  0.00000000  0.00000000       0.125
   0.00000000  0.04462691  0.00000000       0.125
   0.00000000  0.00000000  0.04462691       0.125
   0.04462691  0.04462691  0.00000000       0.125
   0.00000000  0.04462691  0.04462691       0.125
   0.04462691  0.00000000  0.04462691       0.125
   0.04462691  0.04462691  0.04462691       0.125
 
 k-points in reciprocal lattice and weights: KPOINTS created by Atomic Simulation Env
   0.00000000  0.00000000  0.00000000       0.125
   0.50000000  0.00000000  0.00000000       0.125
   0.00000000  0.50000000  0.00000000       0.125
   0.00000000  0.00000000  0.50000000       0.125
   0.50000000  0.50000000  0.00000000       0.125
   0.00000000  0.50000000  0.50000000       0.125
   0.50000000  0.00000000  0.50000000       0.125
   0.50000000  0.50000000  0.50000000       0.125
 
 position of ions in fractional coordinates (direct lattice) 
   0.00267761  0.00000000  0.00000000
   0.25000000  0.25000000  0.00000000
   0.25000000  0.00000000  0.25000000
   0.00000000  0.25000000  0.25000000
   0.00000000  0.00000000  0.50000000
   0.25000000  0.25000000  0.50000000
   0.25000000  0.00000000  0.75000000
   0.00000000  0.25000000  0.75000000
   0.00000000  0.50000000  0.00000000
   0.25000000  0.75000000  0.00000000
   0.25000000  0.50000000  0.25000000
   0.00000000  0.75000000  0.25000000
   0.00000000  0.50000000  0.50000000
   0.25000000  0.75000000  0.50000000
   0.25000000  0.50000000  0.75000000
   0.00000000  0.75000000  0.75000000
   0.50000000  0.00000000  0.00000000
   0.75000000  0.25000000  0.00000000
   0.75000000  0.00000000  0.25000000
   0.50000000  0.25000000  0.25000000
   0.50000000  0.00000000  0.50000000
   0.75000000  0.25000000  0.50000000
   0.75000000  0.00000000  0.75000000
   0.50000000  0.25000000  0.75000000
   0.50000000  0.50000000  0.00000000
   0.75000000  0.75000000  0.00000000
   0.75000000  0.50000000  0.25000000
   0.50000000  0.75000000  0.25000000
   0.50000000  0.50000000  0.50000000
   0.75000000  0.75000000  0.50000000
   0.75000000  0.50000000  0.75000000
   0.50000000  0.75000000  0.75000000
   0.25000000  0.25000000  0.25000000
   0.99732239  0.00000000  0.25000000
   0.00000000  0.25000000  0.00000000
   0.25000000  0.00000000  0.00000000
   0.25000000  0.25000000  0.75000000
   0.00000000  0.00000000  0.75000000
   0.00000000  0.25000000  0.50000000
   0.25000000  0.00000000  0.50000000
   0.25000000  0.75000000  0.25000000
   0.00000000  0.50000000  0.25000000
   0.00000000  0.75000000  0.00000000
   0.25000000  0.50000000  0.00000000
   0.25000000  0.75000000  0.75000000
   0.00000000  0.50000000  0.75000000
   0.00000000  0.75000000  0.50000000
   0.25000000  0.50000000  0.50000000
   0.75000000  0.25000000  0.25000000
   0.50000000  0.00000000  0.25000000
   0.50000000  0.25000000  0.00000000
   0.75000000  0.00000000  0.00000000
   0.75000000  0.25000000  0.75000000
   0.50000000  0.00000000  0.75000000
   0.50000000  0.25000000  0.50000000
   0.75000000  0.00000000  0.50000000
   0.75000000  0.75000000  0.25000000
   0.50000000  0.50000000  0.25000000
   0.50000000  0.75000000  0.00000000
   0.75000000  0.50000000  0.00000000
   0.75000000  0.75000000  0.75000000
   0.50000000  0.50000000  0.75000000
   0.50000000  0.75000000  0.50000000
   0.75000000  0.50000000  0.50000000
 
 position of ions in cartesian coordinates  (Angst):
   0.03000000  0.00000000  0.00000000
   2.80100059  2.80100059  0.00000000
   2.80100059  0.00000000  2.80100059
   0.00000000  2.80100059  2.80100059
   0.00000000  0.00000000  5.60200118
   2.80100059  2.80100059  5.60200118
   2.80100059  0.00000000  8.40300177
   0.00000000  2.80100059  8.40300177
   0.00000000  5.60200118  0.00000000
   2.80100059  8.40300177  0.00000000
   2.80100059  5.60200118  2.80100059
   0.00000000  8.40300177  2.80100059
   0.00000000  5.60200118  5.60200118
   2.80100059  8.40300177  5.60200118
   2.80100059  5.60200118  8.40300177
   0.00000000  8.40300177  8.40300177
   5.60200118  0.00000000  0.00000000
   8.40300177  2.80100059  0.00000000
   8.40300177  0.00000000  2.80100059
   5.60200118  2.80100059  2.80100059
   5.60200118  0.00000000  5.60200118
   8.40300177  2.80100059  5.60200118
   8.40300177  0.00000000  8.40300177
   5.60200118  2.80100059  8.40300177
   5.60200118  5.60200118  0.00000000
   8.40300177  8.40300177  0.00000000
   8.40300177  5.60200118  2.80100059
   5.60200118  8.40300177  2.80100059
   5.60200118  5.60200118  5.60200118
   8.40300177  8.40300177  5.60200118
   8.40300177  5.60200118  8.40300177
   5.60200118  8.40300177  8.40300177
   2.80100059  2.80100059  2.80100059
  11.17400236  0.00000000  2.80100059
   0.00000000  2.80100059  0.00000000
   2.80100059  0.00000000  0.00000000
   2.80100059  2.80100059  8.40300177
   0.00000000  0.00000000  8.40300177
   0.00000000  2.80100059  5.60200118
   2.80100059  0.00000000  5.60200118
   2.80100059  8.40300177  2.80100059
   0.00000000  5.60200118  2.80100059
   0.00000000  8.40300177  0.00000000
   2.80100059  5.60200118  0.00000000
   2.80100059  8.40300177  8.40300177
   0.00000000  5.60200118  8.40300177
   0.00000000  8.40300177  5.60200118
   2.80100059  5.60200118  5.60200118
   8.40300177  2.80100059  2.80100059
   5.60200118  0.00000000  2.80100059
   5.60200118  2.80100059  0.00000000
   8.40300177  0.00000000  0.00000000
   8.40300177  2.80100059  8.40300177
   5.60200118  0.00000000  8.40300177
   5.60200118  2.80100059  5.60200118
   8.40300177  0.00000000  5.60200118
   8.40300177  8.40300177  2.80100059
   5.60200118  5.60200118  2.80100059
   5.60200118  8.40300177  0.00000000
   8.40300177  5.60200118  0.00000000
   8.40300177  8.40300177  8.40300177
   5.60200118  5.60200118  8.40300177
   5.60200118  8.40300177  5.60200118
   8.40300177  5.60200118  5.60200118
 


--------------------------------------------------------------------------------------------------------


 k-point   1 :   0.0000 0.0000 0.0000  plane waves:   20005
 k-point   2 :   0.5000 0.0000 0.0000  plane waves:   20138
 k-point   3 :   0.0000 0.5000 0.0000  plane waves:   20138
 k-point   4 :   0.0000 0.0000 0.5000  plane waves:   20138
 k-point   5 :   0.5000 0.5000 0.0000  plane waves:   20160
 k-point   6 :   0.0000 0.5000 0.5000  plane waves:   20160
 k-point   7 :   0.5000 0.0000 0.5000  plane waves:   20160
 k-point   8 :   0.5000 0.5000 0.5000  plane waves:   20336

 maximum and minimum number of plane-waves per node :     20336    20005

 maximum number of plane-waves:     20336
 maximum index in each direction: 
   IXMAX=   16   IYMAX=   16   IZMAX=   16
   IXMIN=  -17   IYMIN=  -17   IZMIN=  -17


 serial   3D FFT for wavefunctions
 parallel 3D FFT for charge:
    minimum data exchange during FFTs selected (reduces bandwidth)


 total amount of memory used by VASP MPI-rank0   129658. kBytes
=======================================================================

   base      :      30000. kBytes
   nonl-proj :      41680. kBytes
   fftplans  :      14405. kBytes
   grid      :      19342. kBytes
   one-center:        196. kBytes
   wavefun   :      24035. kBytes
 
     INWAV:  cpu time      0.0000: real time      0.0000
 Broyden mixing: mesh for mixing (old mesh)
   NGX = 33   NGY = 33   NGZ = 33
  (NGX  =140   NGY  =140   NGZ  =140)
  gives a total of  35937 points

 initial charge density was supplied:
 charge density of overlapping atoms calculated
 number of electron     448.0000000 magnetization 
 keeping initial charge density in first step


--------------------------------------------------------------------------------------------------------


 Maximum index for augmentation-charges         1834 (set IRDMAX)


--------------------------------------------------------------------------------------------------------


 First call to EWALD:  gamma=   0.158
 Maximum number of real-space cells 3x 3x 3
 Maximum number of reciprocal cells 3x 3x 3

    FEWALD:  cpu time      0.0015: real time      0.0015


--------------------------------------- Iteration      1(   1)  ---------------------------------------


    POTLOK:  cpu time      0.0421: real time      0.0427
    SETDIJ:  cpu time      0.0315: real time      0.0317
     EDDAV:  cpu time      9.4787: real time      9.5311
       DOS:  cpu time      0.0006: real time      0.0007
    --------------------------------------------
      LOOP:  cpu time      9.5530: real time      9.6061

 eigenvalue-minimisations  :  4608
 total energy-change (2. order) : 0.4321966E+04  (-0.1716431E+05)
 number of electron     448.0000000 magnetization 
 augmentation part      448.0000000 magnetization 

 Free energy of the ion-electron system (eV)
  ---------------------------------------------------
  alpha Z        PSCENC =       751.52672365
  Ewald energy   TEWEN  =    -22871.36777923
  -Hartree energ DENC   =     -8992.22014845
  -exchange      EXHF   =         0.00000000
  -V(xc)+E(xc)   XCENC  =      1456.53419535
  PAW double counting   =     26466.43774078   -29286.08056155
  entropy T*S    EENTRO =        -0.00234143
  eigenvalues    EBANDS =      -735.04152305
  atomic energy  EATOM  =     37532.17946992
  Solvation  Ediel_sol  =         0.00000000
  ---------------------------------------------------
  free energy    TOTEN  =      4321.96577599 eV

  energy without entropy =     4321.96811742  energy(sigma->0) =     4321.96694671


--------------------------------------------------------------------------------------------------------




--------------------------------------- Iteration      1(   2)  ---------------------------------------


     EDDAV:  cpu time     10.3261: real time     10.3872
       DOS:  cpu time      0.0002: real time      0.0002
    --------------------------------------------
      LOOP:  cpu time     10.3263: real time     10.3874

 eigenvalue-minimisations  :  5120
 total energy-change (2. order) :-0.3958071E+04  (-0.3765843E+04)
 number of electron     448.0000000 magnetization 
 augmentation part      448.0000000 magnetization 

 Free energy of the ion-electron system (eV)
  ---------------------------------------------------
  alpha Z        PSCENC =       751.52672365
  Ewald energy   TEWEN  =    -22871.36777923
  -Hartree energ DENC   =     -8992.22014845
  -exchange      EXHF   =         0.00000000
  -V(xc)+E(xc)   XCENC  =      1456.53419535
  PAW double counting   =     26466.43774078   -29286.08056155
  entropy T*S    EENTRO =        -0.00000000
  eigenvalues    EBANDS =     -4693.11528817
  atomic energy  EATOM  =     37532.17946992
  Solvation  Ediel_sol  =         0.00000000
  ---------------------------------------------------
  free energy    TOTEN  =       363.89435230 eV

  energy without entropy =      363.89435230  energy(sigma->0) =      363.89435230


--------------------------------------------------------------------------------------------------------




--------------------------------------- Iteration      1(   3)  ---------------------------------------


     EDDAV:  cpu time     11.0825: real time     11.1435
       DOS:  cpu time      0.0002: real time      0.0002
    --------------------------------------------
      LOOP:  cpu time     11.0827: real time     11.1437

 eigenvalue-minimisations  :  5600
 total energy-change (2. order) :-0.5700694E+03  (-0.5658106E+03)
 number of electron     448.0000000 magnetization 
 augmentation part      448.0000000 magnetization 

 Free energy of the ion-electron system (eV)
  ---------------------------------------------------
  alpha Z        PSCENC =       751.52672365
  Ewald energy   TEWEN  =    -22871.36777923
  -Hartree energ DENC   =     -8992.22014845
  -exchange      EXHF   =         0.00000000
  -V(xc)+E(xc)   XCENC  =      1456.53419535
  PAW double counting   =     26466.43774078   -29286.08056155
  entropy T*S    EENTRO =        -0.00000000
  eigenvalues    EBANDS =     -5263.18464947
  atomic energy  EATOM  =     37532.17946992
  Solvation  Ediel_sol  =         0.00000000
  ---------------------------------------------------
  free energy    TOTEN  =      -206.17500899 eV

  energy without entropy =     -206.17500899  energy(sigma->0) =     -206.17500899


--------------------------------------------------------------------------------------------------------




--------------------------------------- Iteration      1(   4)  ---------------------------------------


     EDDAV:  cpu time     11.0068: real time     11.0673
       DOS:  cpu time      0.0003: real time      0.0003
    --------------------------------------------
      LOOP:  cpu time     11.0071: real time     11.0677

 eigenvalue-minimisations  :  5536
 total energy-change (2. order) :-0.2201674E+02  (-0.2191550E+02)
 number of electron     448.0000000 magnetization 
 augmentation part      448.0000000 magnetization 

 Free energy of the ion-electron system (eV)
  ---------------------------------------------------
  alpha Z        PSCENC =       751.52672365
  Ewald energy   TEWEN  =    -22871.36777923
  -Hartree energ DENC   =     -8992.22014845
  -exchange      EXHF   =         0.00000000
  -V(xc)+E(xc)   XCENC  =      1456.53419535
  PAW double counting   =     26466.43774078   -29286.08056155
  entropy T*S    EENTRO =        -0.00000000
  eigenvalues    EBANDS =     -5285.20139025
  atomic energy  EATOM  =     37532.17946992
  Solvation  Ediel_sol  =         0.00000000
  ---------------------------------------------------
  free energy    TOTEN  =      -228.19174978 eV

  energy without entropy =     -228.19174978  energy(sigma->0) =     -228.19174978


--------------------------------------------------------------------------------------------------------




--------------------------------------- Iteration      1(   5)  ---------------------------------------


     EDDAV:  cpu time     11.0987: real time     11.1672
       DOS:  cpu time      0.0002: real time      0.0002
    CHARGE:  cpu time      0.3477: real time      0.3499
    MIXING:  cpu time      0.0014: real time      0.0014
    --------------------------------------------
      LOOP:  cpu time     11.4481: real time     11.5187

 eigenvalue-minimisations  :  5600
 total energy-change (2. order) :-0.8115022E+00  (-0.8100980E+00)
 number of electron     448.0000022 magnetization 
 augmentation part      111.6500715 magnetization 

 Broyden mixing:
  rms(total) = 0.10609E+01    rms(broyden)= 0.10604E+01
  rms(prec ) = 0.14937E+01
  weight for this iteration     100.00

 Free energy of the ion-electron system (eV)
  ---------------------------------------------------
  alpha Z        PSCENC =       751.52672365
  Ewald energy   TEWEN  =    -22871.36777923
  -Hartree energ DENC   =     -8992.22014845
  -exchange      EXHF   =         0.00000000
  -V(xc)+E(xc)   XCENC  =      1456.53419535
  PAW double counting   =     26466.43774078   -29286.08056155
  entropy T*S    EENTRO =        -0.00000000
  eigenvalues    EBANDS =     -5286.01289246
  atomic energy  EATOM  =     37532.17946992
  Solvation  Ediel_sol  =         0.00000000
  ---------------------------------------------------
  free energy    TOTEN  =      -229.00325199 eV

  energy without entropy =     -229.00325199  energy(sigma->0) =     -229.00325199


--------------------------------------------------------------------------------------------------------




--------------------------------------- Iteration      1(   6)  ---------------------------------------


    POTLOK:  cpu time      0.0370: real time      0.0377
    SETDIJ:  cpu time      0.0304: real time      0.0306
     EDDAV:  cpu time     11.3017: real time     11.3641
       DOS:  cpu time      0.0004: real time      0.0004
    CHARGE:  cpu time      0.3412: real time      0.3430
    MIXING:  cpu time      0.0014: real time      0.0014
    --------------------------------------------
      LOOP:  cpu time     11.7122: real time     11.7771

 eigenvalue-minimisations  :  5728
 total energy-change (2. order) : 0.4864348E+01  (-0.9468178E+00)
 number of electron     448.0000022 magnetization 
 augmentation part      112.4555724 magnetization 

 Broyden mixing:
  rms(total) = 0.77570E+00    rms(broyden)= 0.77565E+00
  rms(prec ) = 0.89179E+00
  weight for this iteration     100.00

 eigenvalues of (default mixing * dielectric matrix)
  average eigenvalue GAMMA=   1.0762
  1.0762

 Free energy of the ion-electron system (eV)
  ---------------------------------------------------
  alpha Z        PSCENC =       751.52672365
  Ewald energy   TEWEN  =    -22871.36777923
  -Hartree energ DENC   =     -9061.88065405
  -exchange      EXHF   =         0.00000000
  -V(xc)+E(xc)   XCENC  =      1465.43980424
  PAW double counting   =     27291.44486296   -30103.54720508
  entropy T*S    EENTRO =        -0.00000000
  eigenvalues    EBANDS =     -5227.93412647
  atomic energy  EATOM  =     37532.17946992
  Solvation  Ediel_sol  =         0.00000000
  ---------------------------------------------------
  free energy    TOTEN  =      -224.13890405 eV

  energy without entropy =     -224.13890405  energy(sigma->0) =     -224.13890405


--------------------------------------------------------------------------------------------------------




--------------------------------------- Iteration      1(   7)  ---------------------------------------


    POTLOK:  cpu time      0.0362: real time      0.0372
    SETDIJ:  cpu time      0.0303: real time      0.0305
     EDDAV:  cpu time     12.1831: real time     12.2507
       DOS:  cpu time      0.0005: real time      0.0005
    CHARGE:  cpu time      0.3378: real time      0.3398
    MIXING:  cpu time      0.0013: real time      0.0013
    --------------------------------------------
      LOOP:  cpu time     12.5893: real time     12.6600

 eigenvalue-minimisations  :  6272
 total energy-change (2. order) : 0.3616204E+00  (-0.2072015E+00)
 number of electron     448.0000022 magnetization 
 augmentation part      112.8270922 magnetization 

 Broyden mixing:
  rms(total) = 0.53302E+00    rms(broyden)= 0.53299E+00
  rms(prec ) = 0.56298E+00
  weight for this iteration     100.00

 eigenvalues of (default mixing * dielectric matrix)
  average eigenvalue GAMMA=   2.1556
  1.4397  2.8714

 Free energy of the ion-electron system (eV)
  ---------------------------------------------------
  alpha Z        PSCENC =       751.52672365
  Ewald energy   TEWEN  =    -22871.36777923
  -Hartree energ DENC   =     -9085.85209716
  -exchange      EXHF   =         0.00000000
  -V(xc)+E(xc)   XCENC  =      1470.13027134
  PAW double counting   =     28330.44670603   -31143.17288352
  entropy T*S    EENTRO =        -0.00000000
  eigenvalues    EBANDS =     -5207.66769471
  atomic energy  EATOM  =     37532.17946992
  Solvation  Ediel_sol  =         0.00000000
  ---------------------------------------------------
  free energy    TOTEN  =      -223.77728368 eV

  energy without entropy =     -223.77728368  energy(sigma->0) =     -223.77728368


--------------------------------------------------------------------------------------------------------




--------------------------------------- Iteration      1(   8)  ---------------------------------------


    POTLOK:  cpu time      0.0361: real time      0.0402
    SETDIJ:  cpu time      0.0300: real time      0.0302
     EDDAV:  cpu time     10.6969: real time     10.7553
       DOS:  cpu time      0.0005: real time      0.0005
    CHARGE:  cpu time      0.3460: real time      0.3481
    MIXING:  cpu time      0.0010: real time      0.0010
    --------------------------------------------
      LOOP:  cpu time     11.1105: real time     11.1754

 eigenvalue-minimisations  :  5344
 total energy-change (2. order) :-0.1252261E+00  (-0.2658490E-01)
 number of electron     448.0000022 magnetization 
 augmentation part      112.8092076 magnetization 

 Broyden mixing:
  rms(total) = 0.14193E+00    rms(broyden)= 0.14193E+00
  rms(prec ) = 0.14483E+00
  weight for this iteration     100.00

 eigenvalues of (default mixing * dielectric matrix)
  average eigenvalue GAMMA=   1.5565
  2.5209  1.3855  0.7632

 Free energy of the ion-electron system (eV)
  ---------------------------------------------------
  alpha Z        PSCENC =       751.52672365
  Ewald energy   TEWEN  =    -22871.36777923
  -Hartree energ DENC   =     -9075.16850182
  -exchange      EXHF   =         0.00000000
  -V(xc)+E(xc)   XCENC  =      1472.33756858
  PAW double counting   =     29809.52090294   -32629.34844212
  entropy T*S    EENTRO =        -0.00000000
  eigenvalues    EBANDS =     -5213.58245174
  atomic energy  EATOM  =     37532.17946992
  Solvation  Ediel_sol  =         0.00000000
  ---------------------------------------------------
  free energy    TOTEN  =      -223.90250983 eV

  energy without entropy =     -223.90250983  energy(sigma->0) =     -223.90250983


--------------------------------------------------------------------------------------------------------




--------------------------------------- Iteration      1(   9)  ---------------------------------------


    POTLOK:  cpu time      0.0357: real time      0.0359
    SETDIJ:  cpu time      0.0302: real time      0.0303
     EDDAV:  cpu time     11.2429: real time     11.3048
       DOS:  cpu time      0.0006: real time      0.0006
    CHARGE:  cpu time      0.3378: real time      0.3396
    MIXING:  cpu time      0.0014: real time      0.0014
    --------------------------------------------
      LOOP:  cpu time     11.6486: real time     11.7126

 eigenvalue-minimisations  :  5664
 total energy-change (2. order) : 0.5580669E-02  (-0.1154643E-02)
 number of electron     448.0000022 magnetization 
 augmentation part      112.8315611 magnetization 

 Broyden mixing:
  rms(total) = 0.59846E-01    rms(broyden)= 0.59845E-01
  rms(prec ) = 0.61921E-01
  weight for this iteration     100.00

 eigenvalues of (default mixing * dielectric matrix)
  average eigenvalue GAMMA=   1.9978
  2.7996  2.7996  0.9980  1.3941

 Free energy of the ion-electron system (eV)
  ---------------------------------------------------
  alpha Z        PSCENC =       751.52672365
  Ewald energy   TEWEN  =    -22871.36777923
  -Hartree energ DENC   =     -9077.92379308
  -exchange      EXHF   =         0.00000000
  -V(xc)+E(xc)   XCENC  =      1472.35657581
  PAW double counting   =     29629.36746826   -32448.34802632
  entropy T*S    EENTRO =        -0.00000000
  eigenvalues    EBANDS =     -5211.68756818
  atomic energy  EATOM  =     37532.17946992
  Solvation  Ediel_sol  =         0.00000000
  ---------------------------------------------------
  free energy    TOTEN  =      -223.89692916 eV

  energy without entropy =     -223.89692916  energy(sigma->0) =     -223.89692916


--------------------------------------------------------------------------------------------------------




--------------------------------------- Iteration      1(  10)  ---------------------------------------


    POTLOK:  cpu time      0.0359: real time      0.0362
    SETDIJ:  cpu time      0.0301: real time      0.0305
     EDDAV:  cpu time     10.8035: real time     10.8626
       DOS:  cpu time      0.0005: real time      0.0005
    CHARGE:  cpu time      0.3394: real time      0.3414
    MIXING:  cpu time      0.0015: real time      0.0015
    --------------------------------------------
      LOOP:  cpu time     11.2109: real time     11.2727

 eigenvalue-minimisations  :  5408
 total energy-change (2. order) :-0.4293959E-02  (-0.1821776E-02)
 number of electron     448.0000022 magnetization 
 augmentation part      112.8606287 magnetization 

 Broyden mixing:
  rms(total) = 0.28439E-01    rms(broyden)= 0.28437E-01
  rms(prec ) = 0.30504E-01
  weight for this iteration     100.00

 eigenvalues of (default mixing * dielectric matrix)
  average eigenvalue GAMMA=   1.7106
  2.9405  2.5120  1.2964  1.0200  0.7843

 Free energy of the ion-electron system (eV)
  ---------------------------------------------------
  alpha Z        PSCENC =       751.52672365
  Ewald energy   TEWEN  =    -22871.36777923
  -Hartree energ DENC   =     -9079.42191914
  -exchange      EXHF   =         0.00000000
  -V(xc)+E(xc)   XCENC  =      1472.60556711
  PAW double counting   =     29456.59098290   -32275.83051614
  entropy T*S    EENTRO =        -0.00000000
  eigenvalues    EBANDS =     -5210.18375219
  atomic energy  EATOM  =     37532.17946992
  Solvation  Ediel_sol  =         0.00000000
  ---------------------------------------------------
  free energy    TOTEN  =      -223.90122312 eV

  energy without entropy =     -223.90122312  energy(sigma->0) =     -223.90122312


--------------------------------------------------------------------------------------------------------




--------------------------------------- Iteration      1(  11)  ---------------------------------------


    POTLOK:  cpu time      0.0360: real time      0.0371
    SETDIJ:  cpu time      0.0302: real time      0.0304
     EDDAV:  cpu time     11.5991: real time     11.6624
       DOS:  cpu time      0.0005: real time      0.0005
    CHARGE:  cpu time      0.3420: real time      0.3441
    MIXING:  cpu time      0.0016: real time      0.0016
    --------------------------------------------
      LOOP:  cpu time     12.0094: real time     12.0761

 eigenvalue-minimisations  :  5888
 total energy-change (2. order) : 0.7104477E-03  (-0.1537285E-03)
 number of electron     448.0000022 magnetization 
 augmentation part      112.8516594 magnetization 

 Broyden mixing:
  rms(total) = 0.89892E-02    rms(broyden)= 0.89891E-02
  rms(prec ) = 0.94431E-02
  weight for this iteration     100.00

 eigenvalues of (default mixing * dielectric matrix)
  average eigenvalue GAMMA=   1.5652
  2.9150  2.4423  1.3170  1.0112  0.8528  0.8528

 Free energy of the ion-electron system (eV)
  ---------------------------------------------------
  alpha Z        PSCENC =       751.52672365
  Ewald energy   TEWEN  =    -22871.36777923
  -Hartree energ DENC   =     -9078.32623955
  -exchange      EXHF   =         0.00000000
  -V(xc)+E(xc)   XCENC  =      1472.53068471
  PAW double counting   =     29486.88271207   -32306.26295142
  entropy T*S    EENTRO =        -0.00000000
  eigenvalues    EBANDS =     -5211.06313283
  atomic energy  EATOM  =     37532.17946992
  Solvation  Ediel_sol  =         0.00000000
  ---------------------------------------------------
  free energy    TOTEN  =      -223.90051267 eV

  energy without entropy =     -223.90051267  energy(sigma->0) =     -223.90051267


--------------------------------------------------------------------------------------------------------




--------------------------------------- Iteration      1(  12)  ---------------------------------------


    POTLOK:  cpu time      0.0362: real time      0.0370
    SETDIJ:  cpu time      0.0307: real time      0.0308
     EDDAV:  cpu time     11.5311: real time     11.5948
       DOS:  cpu time      0.0005: real time      0.0005
    CHARGE:  cpu time      0.3402: real time      0.3422
    MIXING:  cpu time      0.0016: real time      0.0016
    --------------------------------------------
      LOOP:  cpu time     11.9403: real time     12.0070

 eigenvalue-minimisations  :  5856
 total energy-change (2. order) : 0.4285226E-04  (-0.1608202E-04)
 number of electron     448.0000022 magnetization 
 augmentation part      112.8488321 magnetization 

 Broyden mixing:
  rms(total) = 0.14707E-02    rms(broyden)= 0.14698E-02
  rms(prec ) = 0.17436E-02
  weight for this iteration     100.00

 eigenvalues of (default mixing * dielectric matrix)
  average eigenvalue GAMMA=   1.5785
  2.8908  2.4220  1.4269  1.2034  1.2034  1.0831  0.8197

 Free energy of the ion-electron system (eV)
  ---------------------------------------------------
  alpha Z        PSCENC =       751.52672365
  Ewald energy   TEWEN  =    -22871.36777923
  -Hartree energ DENC   =     -9078.15543989
  -exchange      EXHF   =         0.00000000
  -V(xc)+E(xc)   XCENC  =      1472.51839557
  PAW double counting   =     29498.52615682   -32317.90343516
  entropy T*S    EENTRO =        -0.00000000
  eigenvalues    EBANDS =     -5211.22456150
  atomic energy  EATOM  =     37532.17946992
  Solvation  Ediel_sol  =         0.00000000
  ---------------------------------------------------
  free energy    TOTEN  =      -223.90046982 eV

  energy without entropy =     -223.90046982  energy(sigma->0) =     -223.90046982


--------------------------------------------------------------------------------------------------------




--------------------------------------- Iteration      1(  13)  ---------------------------------------


    POTLOK:  cpu time      0.0358: real time      0.0369
    SETDIJ:  cpu time      0.0305: real time      0.0307
     EDDAV:  cpu time     11.0948: real time     11.1564
       DOS:  cpu time      0.0005: real time      0.0005
    CHARGE:  cpu time      0.3420: real time      0.3437
    MIXING:  cpu time      0.0016: real time      0.0016
    --------------------------------------------
      LOOP:  cpu time     11.5053: real time     11.5699

 eigenvalue-minimisations  :  5568
 total energy-change (2. order) :-0.6663904E-06  (-0.2053398E-05)
 number of electron     448.0000022 magnetization 
 augmentation part      112.8477822 magnetization 

 Broyden mixing:
  rms(total) = 0.34403E-03    rms(broyden)= 0.34344E-03
  rms(prec ) = 0.42360E-03
  weight for this iteration     100.00

 eigenvalues of (default mixing * dielectric matrix)
  average eigenvalue GAMMA=   1.6181
  2.9732  2.3432  2.3432  1.2663  0.9935  0.9935  1.0160  1.0160

 Free energy of the ion-electron system (eV)
  ---------------------------------------------------
  alpha Z        PSCENC =       751.52672365
  Ewald energy   TEWEN  =    -22871.36777923
  -Hartree energ DENC   =     -9078.08188820
  -exchange      EXHF   =         0.00000000
  -V(xc)+E(xc)   XCENC  =      1472.51063481
  PAW double counting   =     29498.58228670   -32317.95741887
  entropy T*S    EENTRO =        -0.00000000
  eigenvalues    EBANDS =     -5211.29249927
  atomic energy  EATOM  =     37532.17946992
  Solvation  Ediel_sol  =         0.00000000
  ---------------------------------------------------
  free energy    TOTEN  =      -223.90047048 eV

  energy without entropy =     -223.90047048  energy(sigma->0) =     -223.90047048


--------------------------------------------------------------------------------------------------------




--------------------------------------- Iteration      1(  14)  ---------------------------------------


    POTLOK:  cpu time      0.0363: real time      0.0404
    SETDIJ:  cpu time      0.0305: real time      0.0306
     EDDAV:  cpu time     11.3518: real time     11.4229
       DOS:  cpu time      0.0005: real time      0.0005
    CHARGE:  cpu time      0.3396: real time      0.3417
    MIXING:  cpu time      0.0014: real time      0.0014
    --------------------------------------------
      LOOP:  cpu time     11.7601: real time     11.8374

 eigenvalue-minimisations  :  5728
 total energy-change (2. order) :-0.1045541E-05  (-0.2281142E-06)
 number of electron     448.0000022 magnetization 
 augmentation part      112.8476548 magnetization 

 Broyden mixing:
  rms(total) = 0.94993E-03    rms(broyden)= 0.94989E-03
  rms(prec ) = 0.97706E-03
  weight for this iteration     100.00

 eigenvalues of (default mixing * dielectric matrix)
  average eigenvalue GAMMA=   1.6474
  3.0542  2.6138  2.6138  1.3784  1.2125  1.2125  0.9320  0.9320  0.8772

 Free energy of the ion-electron system (eV)
  ---------------------------------------------------
  alpha Z        PSCENC =       751.52672365
  Ewald energy   TEWEN  =    -22871.36777923
  -Hartree energ DENC   =     -9078.09041124
  -exchange      EXHF   =         0.00000000
  -V(xc)+E(xc)   XCENC  =      1472.51179020
  PAW double counting   =     29500.19860591   -32319.56831777
  entropy T*S    EENTRO =        -0.00000000
  eigenvalues    EBANDS =     -5211.29055297
  atomic energy  EATOM  =     37532.17946992
  Solvation  Ediel_sol  =         0.00000000
  ---------------------------------------------------
  free energy    TOTEN  =      -223.90047153 eV

  energy without entropy =     -223.90047153  energy(sigma->0) =     -223.90047153


--------------------------------------------------------------------------------------------------------




--------------------------------------- Iteration      1(  15)  ---------------------------------------


    POTLOK:  cpu time      0.0360: real time      0.0363
    SETDIJ:  cpu time      0.0303: real time      0.0304
     EDDAV:  cpu time     10.9585: real time     11.0186
       DOS:  cpu time      0.0005: real time      0.0005
    CHARGE:  cpu time      0.3402: real time      0.3422
    MIXING:  cpu time      0.0020: real time      0.0020
    --------------------------------------------
      LOOP:  cpu time     11.3676: real time     11.4301

 eigenvalue-minimisations  :  5504
 total energy-change (2. order) :-0.1470777E-05  (-0.5634033E-07)
 number of electron     448.0000022 magnetization 
 augmentation part      112.8477641 magnetization 

 Broyden mixing:
  rms(total) = 0.31280E-03    rms(broyden)= 0.31276E-03
  rms(prec ) = 0.32525E-03
  weight for this iteration     100.00

 eigenvalues of (default mixing * dielectric matrix)
  average eigenvalue GAMMA=   1.6095
  3.1199  2.7262  2.4688  1.4621  1.2906  1.2906  0.9502  0.9502  0.9684  0.8680

 Free energy of the ion-electron system (eV)
  ---------------------------------------------------
  alpha Z        PSCENC =       751.52672365
  Ewald energy   TEWEN  =    -22871.36777923
  -Hartree energ DENC   =     -9078.12228715
  -exchange      EXHF   =         0.00000000
  -V(xc)+E(xc)   XCENC  =      1472.51280643
  PAW double counting   =     29498.89427206   -32318.25928480
  entropy T*S    EENTRO =        -0.00000000
  eigenvalues    EBANDS =     -5211.26439388
  atomic energy  EATOM  =     37532.17946992
  Solvation  Ediel_sol  =         0.00000000
  ---------------------------------------------------
  free energy    TOTEN  =      -223.90047300 eV

  energy without entropy =     -223.90047300  energy(sigma->0) =     -223.90047300


--------------------------------------------------------------------------------------------------------




--------------------------------------- Iteration      1(  16)  ---------------------------------------


    POTLOK:  cpu time      0.0356: real time      0.0359
    SETDIJ:  cpu time      0.0307: real time      0.0309
     EDDAV:  cpu time     11.2854: real time     11.3478
       DOS:  cpu time      0.0005: real time      0.0005
    CHARGE:  cpu time      0.3429: real time      0.3447
    MIXING:  cpu time      0.0020: real time      0.0020
    --------------------------------------------
      LOOP:  cpu time     11.6971: real time     11.7617

 eigenvalue-minimisations  :  5696
 total energy-change (2. order) :-0.4801550E-06  (-0.1682487E-07)
 number of electron     448.0000022 magnetization 
 augmentation part      112.8478489 magnetization 

 Broyden mixing:
  rms(total) = 0.56956E-04    rms(broyden)= 0.56738E-04
  rms(prec ) = 0.66628E-04
  weight for this iteration     100.00

 eigenvalues of (default mixing * dielectric matrix)
  average eigenvalue GAMMA=   1.5899
  3.1574  2.7136  2.4788  1.3829  1.3829  1.4103  1.1480  1.1480  0.9527  0.8569
  0.8569

 Free energy of the ion-electron system (eV)
  ---------------------------------------------------
  alpha Z        PSCENC =       751.52672365
  Ewald energy   TEWEN  =    -22871.36777923
  -Hartree energ DENC   =     -9078.13194073
  -exchange      EXHF   =         0.00000000
  -V(xc)+E(xc)   XCENC  =      1472.51322617
  PAW double counting   =     29498.35950435   -32317.72408054
  entropy T*S    EENTRO =        -0.00000000
  eigenvalues    EBANDS =     -5211.25559707
  atomic energy  EATOM  =     37532.17946992
  Solvation  Ediel_sol  =         0.00000000
  ---------------------------------------------------
  free energy    TOTEN  =      -223.90047348 eV

  energy without entropy =     -223.90047348  energy(sigma->0) =     -223.90047348


--------------------------------------------------------------------------------------------------------




--------------------------------------- Iteration      1(  17)  ---------------------------------------


    POTLOK:  cpu time      0.0364: real time      0.0371
    SETDIJ:  cpu time      0.0306: real time      0.0308
     EDDAV:  cpu time      8.3728: real time      8.4189
       DOS:  cpu time      0.0005: real time      0.0005
    CHARGE:  cpu time      0.3463: real time      0.3484
    MIXING:  cpu time      0.0019: real time      0.0019
    --------------------------------------------
      LOOP:  cpu time      8.7884: real time      8.8375

 eigenvalue-minimisations  :  3808
 total energy-change (2. order) : 0.2716115E-07  (-0.7382532E-09)
 number of electron     448.0000022 magnetization 
 augmentation part      112.8478486 magnetization 

 Broyden mixing:
  rms(total) = 0.17391E-04    rms(broyden)= 0.16721E-04
  rms(prec ) = 0.27168E-04
  weight for this iteration     100.00

 eigenvalues of (default mixing * dielectric matrix)
  average eigenvalue GAMMA=   1.6166
  3.2003  2.8948  2.2193  2.2193  1.4190  1.2563  1.2563  1.1875  0.9531  0.9531
  0.8892  0.9505

 Free energy of the ion-electron system (eV)
  ---------------------------------------------------
  alpha Z        PSCENC =       751.52672365
  Ewald energy   TEWEN  =    -22871.36777923
  -Hartree energ DENC   =     -9078.13329816
  -exchange      EXHF   =         0.00000000
  -V(xc)+E(xc)   XCENC  =      1472.51327788
  PAW double counting   =     29498.27569657   -32317.64055161
  entropy T*S    EENTRO =        -0.00000000
  eigenvalues    EBANDS =     -5211.25401246
  atomic energy  EATOM  =     37532.17946992
  Solvation  Ediel_sol  =         0.00000000
  ---------------------------------------------------
  free energy    TOTEN  =      -223.90047345 eV

  energy without entropy =     -223.90047345  energy(sigma->0) =     -223.90047345


--------------------------------------------------------------------------------------------------------




--------------------------------------- Iteration      1(  18)  ---------------------------------------


    POTLOK:  cpu time      0.0368: real time      0.0374
    SETDIJ:  cpu time      0.0306: real time      0.0307
     EDDAV:  cpu time      9.1555: real time      9.2060
       DOS:  cpu time      0.0005: real time      0.0005
    CHARGE:  cpu time      0.3475: real time      0.3493
    MIXING:  cpu time      0.0026: real time      0.0026
    --------------------------------------------
      LOOP:  cpu time      9.5736: real time      9.6266

 eigenvalue-minimisations  :  4320
 total energy-change (2. order) :-0.1086082E-06  (-0.1672156E-08)
 number of electron     448.0000022 magnetization 
 augmentation part      112.8478647 magnetization 

 Broyden mixing:
  rms(total) = 0.57132E-04    rms(broyden)= 0.56930E-04
  rms(prec ) = 0.59378E-04
  weight for this iteration     100.00

 eigenvalues of (default mixing * dielectric matrix)
  average eigenvalue GAMMA=   1.5141
  3.2195  2.9164  2.2800  2.2800  1.2804  1.2804  1.2934  1.1330  0.9577  0.8811
  0.9367  0.9367  0.2878

 Free energy of the ion-electron system (eV)
  ---------------------------------------------------
  alpha Z        PSCENC =       751.52672365
  Ewald energy   TEWEN  =    -22871.36777923
  -Hartree energ DENC   =     -9078.13640923
  -exchange      EXHF   =         0.00000000
  -V(xc)+E(xc)   XCENC  =      1472.51341886
  PAW double counting   =     29498.17901639   -32317.54365396
  entropy T*S    EENTRO =        -0.00000000
  eigenvalues    EBANDS =     -5211.25125996
  atomic energy  EATOM  =     37532.17946992
  Solvation  Ediel_sol  =         0.00000000
  ---------------------------------------------------
  free energy    TOTEN  =      -223.90047356 eV

  energy without entropy =     -223.90047356  energy(sigma->0) =     -223.90047356


--------------------------------------------------------------------------------------------------------




--------------------------------------- Iteration      1(  19)  ---------------------------------------


    POTLOK:  cpu time      0.0367: real time      0.0382
    SETDIJ:  cpu time      0.0304: real time      0.0307
     EDDAV:  cpu time      7.2326: real time      7.2724
       DOS:  cpu time      0.0005: real time      0.0005
    CHARGE:  cpu time      0.3417: real time      0.3437
    MIXING:  cpu time      0.0020: real time      0.0020
    --------------------------------------------
      LOOP:  cpu time      7.6439: real time      7.6874

 eigenvalue-minimisations  :  3104
 total energy-change (2. order) : 0.1471926E-07  (-0.9217095E-09)
 number of electron     448.0000022 magnetization 
 augmentation part      112.8478634 magnetization 

 Broyden mixing:
  rms(total) = 0.45732E-04    rms(broyden)= 0.45482E-04
  rms(prec ) = 0.47305E-04
  weight for this iteration     100.00

 eigenvalues of (default mixing * dielectric matrix)
  average eigenvalue GAMMA=   1.5670
  3.3829  2.9577  2.4430  2.4430  1.1801  1.1801  1.2277  1.2277  1.2857  1.0078
  1.0078  0.8519  0.8712  0.8712

 Free energy of the ion-electron system (eV)
  ---------------------------------------------------
  alpha Z        PSCENC =       751.52672365
  Ewald energy   TEWEN  =    -22871.36777923
  -Hartree energ DENC   =     -9078.13636713
  -exchange      EXHF   =         0.00000000
  -V(xc)+E(xc)   XCENC  =      1472.51341293
  PAW double counting   =     29498.20738730   -32317.57195996
  entropy T*S    EENTRO =        -0.00000000
  eigenvalues    EBANDS =     -5211.25136103
  atomic energy  EATOM  =     37532.17946992
  Solvation  Ediel_sol  =         0.00000000
  ---------------------------------------------------
  free energy    TOTEN  =      -223.90047355 eV

  energy without entropy =     -223.90047355  energy(sigma->0) =     -223.90047355


--------------------------------------------------------------------------------------------------------




--------------------------------------- Iteration      1(  20)  ---------------------------------------


    POTLOK:  cpu time      0.0371: real time      0.0409
    SETDIJ:  cpu time      0.0307: real time      0.0309
     EDDAV:  cpu time      7.3243: real time      7.3647
       DOS:  cpu time      0.0006: real time      0.0006
    CHARGE:  cpu time      0.3500: real time      0.3518
    MIXING:  cpu time      0.0013: real time      0.0014
    --------------------------------------------
      LOOP:  cpu time      7.7441: real time      7.7902

 eigenvalue-minimisations  :  3168
 total energy-change (2. order) : 0.3878085E-07  (-0.2607633E-09)
 number of electron     448.0000022 magnetization 
 augmentation part      112.8478622 magnetization 

 Broyden mixing:
  rms(total) = 0.32243E-04    rms(broyden)= 0.31888E-04
  rms(prec ) = 0.32970E-04
  weight for this iteration     100.00

 eigenvalues of (default mixing * dielectric matrix)
  average eigenvalue GAMMA=   1.6228
  3.8795  3.0191  2.6843  2.3676  1.6706  1.4175  1.4175  1.2199  1.2199  0.9659
  0.9659  0.9307  0.9307  0.8266  0.8266

 Free energy of the ion-electron system (eV)
  ---------------------------------------------------
  alpha Z        PSCENC =       751.52672365
  Ewald energy   TEWEN  =    -22871.36777923
  -Hartree energ DENC   =     -9078.13561990
  -exchange      EXHF   =         0.00000000
  -V(xc)+E(xc)   XCENC  =      1472.51338426
  PAW double counting   =     29498.23717782   -32317.60169072
  entropy T*S    EENTRO =        -0.00000000
  eigenvalues    EBANDS =     -5211.25213931
  atomic energy  EATOM  =     37532.17946992
  Solvation  Ediel_sol  =         0.00000000
  ---------------------------------------------------
  free energy    TOTEN  =      -223.90047351 eV

  energy without entropy =     -223.90047351  energy(sigma->0) =     -223.90047351


--------------------------------------------------------------------------------------------------------




--------------------------------------- Iteration      1(  21)  ---------------------------------------


    POTLOK:  cpu time      0.0359: real time      0.0362
    SETDIJ:  cpu time      0.0303: real time      0.0304
     EDDAV:  cpu time      7.1755: real time      7.2151
       DOS:  cpu time      0.0004: real time      0.0004
    CHARGE:  cpu time      0.3478: real time      0.3498
    MIXING:  cpu time      0.0018: real time      0.0018
    --------------------------------------------
      LOOP:  cpu time      7.5918: real time      7.6337

 eigenvalue-minimisations  :  3072
 total energy-change (2. order) : 0.6102346E-07  (-0.3887705E-09)
 number of electron     448.0000022 magnetization 
 augmentation part      112.8478569 magnetization 

 Broyden mixing:
  rms(total) = 0.14986E-04    rms(broyden)= 0.14205E-04
  rms(prec ) = 0.15061E-04
  weight for this iteration     100.00

 eigenvalues of (default mixing * dielectric matrix)
  average eigenvalue GAMMA=   1.6078
  4.1273  2.9686  2.7549  2.4453  1.8298  1.2334  1.2334  1.2825  1.2825  1.0196
  1.0196  0.9896  0.9896  0.8179  0.8653  0.8653

 Free energy of the ion-electron system (eV)
  ---------------------------------------------------
  alpha Z        PSCENC =       751.52672365
  Ewald energy   TEWEN  =    -22871.36777923
  -Hartree energ DENC   =     -9078.13424385
  -exchange      EXHF   =         0.00000000
  -V(xc)+E(xc)   XCENC  =      1472.51332553
  PAW double counting   =     29498.29693975   -32317.66144960
  entropy T*S    EENTRO =        -0.00000000
  eigenvalues    EBANDS =     -5211.25345961
  atomic energy  EATOM  =     37532.17946992
  Solvation  Ediel_sol  =         0.00000000
  ---------------------------------------------------
  free energy    TOTEN  =      -223.90047345 eV

  energy without entropy =     -223.90047345  energy(sigma->0) =     -223.90047345


--------------------------------------------------------------------------------------------------------




--------------------------------------- Iteration      1(  22)  ---------------------------------------


    POTLOK:  cpu time      0.0367: real time      0.0369
    SETDIJ:  cpu time      0.0314: real time      0.0316
     EDDAV:  cpu time      7.1314: real time      7.1705
       DOS:  cpu time      0.0004: real time      0.0004
    --------------------------------------------
[...]
         0         1         2         3         4         5         6         7         8         9
 total charge-density along one line
 
 pseudopotential strength for first ion, spin component:           1
-25.387  -0.000  -0.000   2.510   0.000   0.000   0.000   0.000
 -0.000 -25.387  -0.000   0.000   2.510   0.000   0.000   0.000
 -0.000  -0.000 -25.387   0.000   0.000   2.510  -0.000  -0.001
  2.510   0.000   0.000   6.528   0.000   0.000  -0.000   0.000
  0.000   2.510   0.000   0.000   6.528  -0.000  -0.000  -0.000
  0.000   0.000   2.510   0.000  -0.000   6.528   0.000   0.000
  0.000   0.000  -0.000  -0.000  -0.000   0.000   1.428   6.993
  0.000   0.000  -0.001   0.000  -0.000   0.000   6.993  33.989
 total augmentation occupancy for first ion, spin component:           1
  2.002   0.000   0.000   0.002   0.000   0.000   0.000   0.000
  0.000   2.002   0.000   0.000   0.002   0.000  -0.000   0.000
  0.000   0.000   2.002   0.000   0.000   0.002   0.000  -0.000
  0.002   0.000   0.000   0.017   0.000   0.000   0.000   0.000
  0.000   0.002   0.000   0.000   0.017  -0.000  -0.000   0.000
  0.000   0.000   0.002   0.000  -0.000   0.018   0.003  -0.000
  0.000  -0.000   0.000   0.000  -0.000   0.003   0.403  -0.001
  0.000   0.000  -0.000   0.000   0.000  -0.000  -0.001   0.000


------------------------ aborting loop because EDIFF is reached ----------------------------------------


    CHARGE:  cpu time      0.3381: real time      0.3401
    FORLOC:  cpu time      0.0115: real time      0.0115
    FORNL :  cpu time      2.1959: real time      2.2083
    STRESS:  cpu time     12.1435: real time     12.2049
    FORCOR:  cpu time      0.0434: real time      0.0435
    FORHAR:  cpu time      0.0172: real time      0.0172
    MIXING:  cpu time      0.0013: real time      0.0013
    OFIELD:  cpu time      0.0000: real time      0.0000

  FORCE on cell =-STRESS in cart. coord.  units (eV):
  Direction    XX          YY          ZZ          XY          YZ          ZX
  --------------------------------------------------------------------------------------
  Alpha Z   751.52672   751.52672   751.52672
  Ewald   -7623.56222 -7623.92774 -7624.01515     0.00000     0.00000     0.00276
  Hartree  3026.17121  3026.01172  3025.95147    -0.00000    -0.00000     0.00188
  E(xc)   -2014.34791 -2014.34807 -2014.34810    -0.00000     0.00000     0.00000
  Local   -2025.26575 -2024.74895 -2024.60170    -0.00000     0.00000    -0.00462
  n-local  1887.63153  1887.62059  1887.61985     0.00000     0.00000     0.00002
  augment   687.00910   687.00946   687.00896    -0.00000    -0.00010    -0.00009
  Kinetic  5310.52473  5310.52394  5310.52495     0.00000     0.00000    -0.00004
  Fock        0.00000     0.00000     0.00000     0.00000     0.00000     0.00000
  -------------------------------------------------------------------------------------
  Total      -0.31258    -0.33232    -0.33299     0.00000     0.00000    -0.00008
  in kB      -0.35609    -0.37857    -0.37934     0.00000     0.00000    -0.00009
  external pressure =       -0.37 kB  Pullay stress =        0.00 kB


 VOLUME and BASIS-vectors are now :
 -----------------------------------------------------------------------------
  energy-cutoff  :      341.21
  volume of cell :     1406.43
      direct lattice vectors                 reciprocal lattice vectors
    11.204002360  0.000000000  0.000000000     0.089253819  0.000000000  0.000000000
     0.000000000 11.204002360  0.000000000     0.000000000  0.089253819  0.000000000
     0.000000000  0.000000000 11.204002360     0.000000000  0.000000000  0.089253819

  length of vectors
    11.204002360 11.204002360 11.204002360     0.089253819  0.089253819  0.089253819


 FORCES acting on ions
    electron-ion (+dipol)            ewald-force                    non-local-force                 convergence-correction
 -----------------------------------------------------------------------------------------------
   0.307E+01 0.370E-13 -.480E-01   -.306E+01 -.310E-13 0.458E-01   -.780E-01 0.135E-23 0.243E-02   -.495E-05 -.830E-13 0.915E-06
   -.177E+00 -.279E+00 -.166E+00   0.182E+00 0.320E+00 0.159E+00   -.345E-02 -.334E-01 0.604E-02   0.197E-06 0.450E-05 -.241E-05
   0.188E+01 0.356E-13 -.445E+00   -.175E+01 0.228E-13 0.479E+00   -.142E+00 0.523E-25 -.275E-01   -.204E-07 -.657E-13 0.252E-05
   -.661E+00 0.182E-01 0.257E-02   0.610E+00 -.179E-01 -.259E-02   0.441E-01 -.514E-03 0.233E-04   0.256E-06 -.289E-06 0.199E-07
   -.798E+00 0.363E-13 0.155E-01   0.755E+00 0.377E-13 -.153E-01   0.373E-01 0.120E-24 -.374E-03   0.289E-05 -.708E-13 -.682E-06
   0.581E-01 0.127E+00 0.166E+00   -.575E-01 -.120E+00 -.159E+00   -.396E-03 -.560E-02 -.603E-02   0.278E-06 0.148E-05 0.146E-05
   -.225E+00 0.348E-13 0.445E+00   0.228E+00 -.387E-14 -.479E+00   -.208E-02 0.926E-25 0.274E-01   -.446E-06 -.576E-13 -.243E-05
   0.187E+00 0.288E-02 -.253E-02   -.199E+00 -.299E-02 0.259E-02   0.921E-02 0.930E-04 -.528E-04   0.512E-05 0.562E-06 -.153E-06
   0.508E-01 0.771E-12 -.385E-03   -.539E-01 0.356E-14 0.398E-03   0.243E-02 -.665E-26 -.108E-04   0.537E-05 0.636E-14 -.301E-06
   -.177E+00 0.279E+00 -.166E+00   0.182E+00 -.320E+00 0.159E+00   -.345E-02 0.334E-01 0.604E-02   0.197E-06 -.450E-05 -.241E-05
   0.103E-01 0.839E-12 -.397E-01   -.114E-01 0.178E-14 0.392E-01   0.947E-03 -.419E-26 0.421E-03   0.838E-07 0.173E-14 0.153E-06
   -.661E+00 -.182E-01 0.257E-02   0.610E+00 0.179E-01 -.259E-02   0.441E-01 0.514E-03 0.233E-04   0.256E-06 0.289E-06 0.199E-07
   -.478E-01 0.770E-12 0.389E-03   0.420E-01 0.196E-13 -.398E-03   0.477E-02 0.341E-26 0.781E-05   0.459E-05 0.448E-15 -.838E-07
   0.581E-01 -.127E+00 0.166E+00   -.575E-01 0.120E+00 -.159E+00   -.396E-03 0.560E-02 -.603E-02   0.278E-06 -.148E-05 0.146E-05
   -.446E-02 0.571E-12 0.397E-01   0.436E-02 -.520E-17 -.392E-01   0.744E-04 0.135E-25 -.421E-03   -.140E-06 -.651E-14 0.332E-06
   0.187E+00 -.288E-02 -.253E-02   -.199E+00 0.299E-02 0.259E-02   0.921E-02 -.930E-04 -.528E-04   0.512E-05 -.562E-06 -.153E-06
   -.151E+00 0.307E-13 0.159E-02   0.235E+00 0.159E-13 -.158E-02   -.714E-01 0.545E-25 0.158E-06   -.716E-06 -.623E-13 0.107E-07
   -.184E+00 0.270E+00 0.168E+00   0.189E+00 -.309E+00 -.161E+00   -.342E-02 0.329E-01 -.607E-02   0.576E-06 -.317E-05 0.113E-05
   0.193E+01 0.277E-13 0.438E+00   -.181E+01 0.198E-13 -.470E+00   -.146E+00 0.591E-25 0.267E-01   0.651E-06 -.695E-13 -.240E-05
   0.133E+00 -.234E-02 -.746E-03   -.108E+00 0.236E-02 0.777E-03   -.211E-01 -.154E-04 -.254E-04   -.164E-05 0.167E-06 0.180E-06
   0.173E+00 0.245E-13 -.158E-02   -.153E+00 0.289E-13 0.158E-02   -.168E-01 -.350E-25 0.305E-05   -.396E-05 -.582E-13 -.482E-06
   0.533E-01 -.128E+00 -.168E+00   -.527E-01 0.122E+00 0.161E+00   -.388E-03 0.568E-02 0.608E-02   0.789E-06 -.121E-05 -.868E-06
   -.231E+00 0.423E-13 -.438E+00   0.234E+00 -.629E-14 0.470E+00   -.209E-02 0.115E-25 -.268E-01   -.220E-06 -.587E-13 0.207E-05
   -.695E-01 -.104E-02 0.745E-03   0.798E-01 0.105E-02 -.777E-03   -.848E-02 -.752E-05 0.258E-04   -.543E-05 0.122E-06 0.274E-06
   -.296E-01 0.720E-12 0.288E-03   0.348E-01 0.574E-17 -.274E-03   -.417E-02 0.126E-26 -.121E-04   -.591E-05 0.148E-13 0.230E-06
   -.184E+00 -.270E+00 0.168E+00   0.189E+00 0.309E+00 -.161E+00   -.342E-02 -.329E-01 -.607E-02   0.576E-06 0.317E-05 0.113E-05
   0.625E-02 0.238E-11 0.395E-01   -.739E-02 -.180E-14 -.391E-01   0.962E-03 0.630E-26 -.414E-03   0.456E-06 0.143E-13 -.429E-06
   0.133E+00 0.234E-02 -.746E-03   -.108E+00 -.236E-02 0.777E-03   -.211E-01 0.154E-04 -.254E-04   -.164E-05 -.167E-06 0.180E-06
   0.365E-01 0.843E-12 -.288E-03   -.304E-01 0.142E-13 0.274E-03   -.498E-02 -.643E-26 0.121E-04   -.627E-05 0.137E-13 -.138E-06
   0.533E-01 0.128E+00 -.168E+00   -.527E-01 -.122E+00 0.161E+00   -.388E-03 -.568E-02 0.608E-02   0.789E-06 0.121E-05 -.868E-06
   -.721E-02 0.662E-11 -.395E-01   0.713E-02 -.352E-14 0.391E-01   0.543E-04 0.281E-26 0.414E-03   0.708E-06 0.258E-14 0.637E-06
   -.695E-01 0.104E-02 0.745E-03   0.798E-01 -.105E-02 -.777E-03   -.848E-02 0.752E-05 0.258E-04   -.543E-05 -.122E-06 0.274E-06
   0.195E+00 0.319E+00 -.159E+00   -.189E+00 -.309E+00 0.161E+00   -.976E-02 -.170E-01 -.331E-02   0.712E-06 0.266E-05 0.152E-05
   -.311E+01 -.774E-13 0.455E-01   0.306E+01 0.573E-14 -.458E-01   0.138E+00 0.265E-24 -.204E-04   -.206E-07 -.684E-13 -.929E-06
   0.595E+00 0.178E-01 -.264E-02   -.610E+00 -.179E-01 0.259E-02   0.224E-01 -.145E-03 0.777E-04   0.212E-05 -.116E-05 0.140E-06
   -.179E+01 -.720E-13 -.478E+00   0.181E+01 -.276E-13 0.470E+00   -.151E-02 -.597E-25 0.137E-01   0.818E-06 -.621E-13 -.232E-05
   -.524E-01 -.119E+00 0.159E+00   0.527E-01 0.122E+00 -.161E+00   -.458E-03 -.473E-02 0.331E-02   -.131E-05 0.179E-05 -.276E-06
   0.741E+00 -.778E-13 -.152E-01   -.755E+00 0.160E-14 0.153E-01   0.205E-01 -.111E-25 0.803E-04   0.611E-05 -.606E-13 0.134E-05
   -.203E+00 0.300E-02 0.262E-02   0.199E+00 -.299E-02 -.259E-02   0.742E-02 -.118E-04 -.417E-04   0.409E-05 -.279E-06 0.422E-06
   0.239E+00 -.714E-13 0.478E+00   -.234E+00 -.178E-13 -.470E+00   -.874E-02 -.739E-26 -.137E-01   0.277E-07 -.586E-13 0.209E-05
   0.195E+00 -.319E+00 -.159E+00   -.189E+00 0.309E+00 0.161E+00   -.976E-02 0.170E-01 -.331E-02   0.712E-06 -.266E-05 0.152E-05
   -.572E-01 -.107E-14 0.388E-03   0.539E-01 -.708E-14 -.398E-03   0.544E-02 0.177E-24 0.158E-04   0.311E-05 0.137E-13 0.562E-06
   0.595E+00 -.178E-01 -.264E-02   -.610E+00 0.179E-01 0.259E-02   0.224E-01 0.145E-03 0.777E-04   0.212E-05 0.116E-05 0.140E-06
   -.771E-02 0.146E-13 -.399E-01   0.739E-02 -.622E-14 0.391E-01   0.533E-03 -.232E-25 0.143E-02   0.928E-07 -.481E-15 -.283E-05
   -.524E-01 0.119E+00 0.159E+00   0.527E-01 -.122E+00 -.161E+00   -.458E-03 0.473E-02 0.331E-02   -.131E-05 -.179E-05 -.276E-06
   0.403E-01 -.966E-13 -.391E-03   -.420E-01 0.222E-13 0.398E-03   0.285E-02 -.178E-24 -.125E-04   0.792E-05 0.449E-14 0.241E-06
   -.203E+00 -.300E-02 0.262E-02   0.199E+00 0.299E-02 -.259E-02   0.742E-02 0.118E-04 -.417E-04   0.409E-05 0.279E-06 0.422E-06
   0.706E-02 0.299E-13 0.399E-01   -.713E-02 -.711E-14 -.391E-01   0.117E-03 0.309E-24 -.143E-02   0.151E-05 -.299E-14 0.155E-05
   0.188E+00 -.330E+00 0.157E+00   -.182E+00 0.320E+00 -.159E+00   -.990E-02 0.173E-01 0.323E-02   0.253E-05 -.234E-05 -.112E-05
   0.245E+00 -.706E-13 -.156E-02   -.235E+00 0.750E-14 0.158E-02   -.167E-01 -.258E-24 -.349E-04   -.118E-05 -.685E-13 0.912E-06
   -.101E+00 -.235E-02 0.781E-03   0.108E+00 0.236E-02 -.777E-03   -.110E-01 -.220E-04 -.652E-05   -.405E-05 0.756E-06 0.469E-06
   -.173E+01 -.745E-13 0.487E+00   0.175E+01 -.546E-13 -.479E+00   -.672E-02 0.173E-24 -.140E-01   0.487E-05 -.689E-13 0.388E-05
   -.573E-01 0.117E+00 -.157E+00   0.575E-01 -.120E+00 0.159E+00   -.471E-03 0.469E-02 -.324E-02   0.125E-05 -.190E-05 0.103E-05
   -.146E+00 -.693E-13 0.156E-02   0.153E+00 -.290E-15 -.158E-02   -.121E-01 -.265E-26 0.343E-04   -.525E-05 -.572E-13 0.171E-06
   0.832E-01 -.106E-02 -.777E-03   -.798E-01 0.105E-02 0.777E-03   -.559E-02 0.801E-05 0.464E-05   -.716E-05 0.907E-06 -.171E-05
   0.234E+00 -.748E-13 -.487E+00   -.228E+00 -.115E-13 0.479E+00   -.895E-02 -.772E-25 0.140E-01   0.299E-05 -.639E-13 -.293E-05
   0.188E+00 0.330E+00 0.157E+00   -.182E+00 -.320E+00 -.159E+00   -.990E-02 -.173E-01 0.323E-02   0.253E-05 0.234E-05 -.112E-05
   0.388E-01 0.629E-12 -.265E-03   -.348E-01 -.708E-14 0.274E-03   -.662E-02 -.173E-24 -.817E-05   -.447E-05 0.901E-14 -.126E-05
   -.101E+00 0.235E-02 0.781E-03   0.108E+00 -.236E-02 -.777E-03   -.110E-01 0.220E-04 -.652E-05   -.405E-05 -.756E-06 0.469E-06
   -.117E-01 0.107E-10 0.400E-01   0.114E-01 -.364E-13 -.392E-01   0.503E-03 0.251E-24 -.145E-02   0.140E-05 0.965E-14 0.239E-05
   -.573E-01 -.117E+00 -.157E+00   0.575E-01 0.120E+00 0.159E+00   -.471E-03 -.469E-02 -.324E-02   0.125E-05 0.190E-05 0.103E-05
   -.286E-01 0.146E-11 0.269E-03   0.304E-01 0.178E-13 -.274E-03   -.302E-02 0.181E-24 0.607E-05   -.902E-05 -.268E-14 0.266E-06
   0.832E-01 0.106E-02 -.777E-03   -.798E-01 -.105E-02 0.777E-03   -.559E-02 -.801E-05 0.464E-05   -.716E-05 -.907E-06 -.171E-05
   0.429E-02 0.343E-11 -.400E-01   -.436E-02 -.713E-14 0.392E-01   0.118E-03 -.141E-24 0.145E-02   0.202E-05 0.513E-14 -.289E-05
 -----------------------------------------------------------------------------------------------
   0.300E+00 -.375E-11 -.195E-02   0.264E-12 -.552E-13 0.105E-12   -.300E+00 0.429E-17 0.195E-02   -.317E-06 -.122E-12 0.380E-06
 
 
 POSITION                                       TOTAL-FORCE (eV/Angst)
 -----------------------------------------------------------------------------------
      0.03000      0.00000      0.00000        -0.067834     -0.000000      0.000211
      2.80100      2.80100      0.00000         0.001751      0.007220     -0.001291
      2.80100      0.00000      2.80100        -0.014694     -0.000000      0.005947
      0.00000      2.80100      2.80100        -0.006676     -0.000131     -0.000003
      0.00000      0.00000      5.60200        -0.005063     -0.000000     -0.000139
      2.80100      2.80100      5.60200         0.000197      0.001211      0.001290
      2.80100      0.00000      8.40300         0.001363     -0.000000     -0.005933
      0.00000      2.80100      8.40300        -0.002271     -0.000020      0.000013
      0.00000      5.60200      0.00000        -0.000661     -0.000000      0.000002
      2.80100      8.40300      0.00000         0.001751     -0.007220     -0.001291
      2.80100      5.60200      2.80100        -0.000186     -0.000000     -0.000076
      0.00000      8.40300      2.80100        -0.006676      0.000131     -0.000003
      0.00000      5.60200      5.60200        -0.001061     -0.000000     -0.000001
      2.80100      8.40300      5.60200         0.000197     -0.001211      0.001290
      2.80100      5.60200      8.40300        -0.000030     -0.000000      0.000076
      0.00000      8.40300      8.40300        -0.002271      0.000020      0.000013
      5.60200      0.00000      0.00000         0.011749     -0.000000      0.000008
      8.40300      2.80100      0.00000         0.001719     -0.007095      0.001297
      8.40300      0.00000      2.80100        -0.018765     -0.000000     -0.005779
      5.60200      2.80100      2.80100         0.003998      0.000003      0.000006
      5.60200      0.00000      5.60200         0.003144     -0.000000     -0.000001
      8.40300      2.80100      5.60200         0.000197     -0.001227     -0.001299
      8.40300      0.00000      8.40300         0.001340     -0.000000      0.005794
      5.60200      2.80100      8.40300         0.001833      0.000001     -0.000006
      5.60200      5.60200      0.00000         0.000979     -0.000000      0.000003
      8.40300      8.40300      0.00000         0.001719      0.007095      0.001297
      8.40300      5.60200      2.80100        -0.000187     -0.000000      0.000075
      5.60200      8.40300      2.80100         0.003998     -0.000003      0.000006
      5.60200      5.60200      5.60200         0.001112     -0.000000     -0.000003
      8.40300      8.40300      5.60200         0.000197      0.001227     -0.001299
      8.40300      5.60200      8.40300        -0.000026     -0.000000     -0.000075
      5.60200      8.40300      8.40300         0.001833     -0.000001     -0.000006
      2.80100      2.80100      2.80100        -0.004080     -0.007049     -0.001313
     11.17400      0.00000      2.80100         0.081057     -0.000000     -0.000310
      0.00000      2.80100      0.00000         0.007340     -0.000170      0.000034
      2.80100      0.00000      0.00000         0.016360     -0.000000      0.005754
      2.80100      2.80100      8.40300        -0.000180     -0.001874      0.001309
      0.00000      0.00000      8.40300         0.006550     -0.000000      0.000139
      0.00000      2.80100      5.60200         0.002938     -0.000006     -0.000019
      2.80100      0.00000      5.60200        -0.003682     -0.000000     -0.005736
      2.80100      8.40300      2.80100        -0.004080      0.007049     -0.001313
      0.00000      5.60200      2.80100         0.002150     -0.000000      0.000006
      0.00000      8.40300      0.00000         0.007340      0.000170      0.000034
      2.80100      5.60200      0.00000         0.000207     -0.000000      0.000570
      2.80100      8.40300      8.40300        -0.000180      0.001874      0.001309
      0.00000      5.60200      8.40300         0.001119     -0.000000     -0.000005
      0.00000      8.40300      5.60200         0.002938      0.000006     -0.000019
      2.80100      5.60200      5.60200         0.000038     -0.000000     -0.000569
      8.40300      2.80100      2.80100        -0.004159      0.007159      0.001276
      5.60200      0.00000      2.80100        -0.006681     -0.000000     -0.000018
      5.60200      2.80100      0.00000        -0.004385     -0.000011     -0.000002
      8.40300      0.00000      0.00000         0.012263     -0.000000     -0.005865
      8.40300      2.80100      8.40300        -0.000189      0.001858     -0.001280
      5.60200      0.00000      8.40300        -0.004797     -0.000000      0.000016
      5.60200      2.80100      5.60200        -0.002220      0.000003      0.000003
      8.40300      0.00000      5.60200        -0.003788     -0.000000      0.005883
      8.40300      8.40300      2.80100        -0.004159     -0.007159      0.001276
      5.60200      5.60200      2.80100        -0.002634     -0.000000     -0.000001
      5.60200      8.40300      0.00000        -0.004385      0.000011     -0.000002
      8.40300      5.60200      0.00000         0.000193     -0.000000     -0.000576
      8.40300      8.40300      8.40300        -0.000189     -0.001858     -0.001280
      5.60200      5.60200      8.40300        -0.001202     -0.000000      0.000002
      5.60200      8.40300      5.60200        -0.002220     -0.000003      0.000003
      8.40300      5.60200      5.60200         0.000039     -0.000000      0.000575
 -----------------------------------------------------------------------------------
    total drift:                                0.000380     -0.000000      0.000001


--------------------------------------------------------------------------------------------------------



  FREE ENERGIE OF THE ION-ELECTRON SYSTEM (eV)
  ---------------------------------------------------
  free  energy   TOTEN  =      -223.90047345 eV

  energy  without entropy=     -223.90047345  energy(sigma->0) =     -223.90047345
 


--------------------------------------------------------------------------------------------------------


    POTLOK:  cpu time      0.0690: real time      0.0693


--------------------------------------------------------------------------------------------------------


     LOOP+:  cpu time    245.3700: real time    246.7638
    4ORBIT:  cpu time      0.0000: real time      0.0000

 total amount of memory used by VASP MPI-rank0   129658. kBytes
=======================================================================

   base      :      30000. kBytes
   nonl-proj :      41680. kBytes
   fftplans  :      14405. kBytes
   grid      :      19342. kBytes
   one-center:        196. kBytes
   wavefun   :      24035. kBytes
 
  
  
 General timing and accounting informations for this job:
 ========================================================
  
                  Total CPU time used (sec):      249.702
                            User time (sec):      249.102
                          System time (sec):        0.600
                         Elapsed time (sec):      251.523
  
                   Maximum memory used (kb):      316868.
                   Average memory used (kb):          N/A
  
                          Minor page faults:       123885
                          Major page faults:            0
                 Voluntary context switches:          929
