<?xml version="1.0" encoding="ISO-8859-1"?>
<modeling>
 <generator>
  <i name="program" type="string">vasp </i>
  <i name="version" type="string">6.3.2  </i>
  <i name="subversion" type="string">27Jun22 (build Oct 14 2022 12:13:54) complex                          parallel </i>
  <i name="platform" type="string">LinuxIFC </i>
  <i name="date" type="string">2025 08 28 </i>
  <i name="time" type="string">22:04:05 </i>
 </generator>
 <incar>
  <i type="string" name="PREC">Accurate</i>
  <i type="int" name="IALGO">    38</i>
  <i type="logical" name="ADDGRID"> T  </i>
  <i type="int" name="NELMIN">     5</i>
  <i type="int" name="IBRION">    -1</i>
  <i name="EDIFF">      0.00000001</i>
  <i name="ENCUT">    341.21360000</i>
  <i type="logical" name="LREAL"> F  </i>
  <i type="int" name="ISMEAR">     0</i>
  <i name="SIGMA">      0.02000000</i>
  <i type="logical" name="LWAVE"> F  </i>
  <i type="logical" name="LCHARG"> F  </i>
  <i type="string" name="GGA">PS</i>
 </incar>
 <primitive_cell>
  <structure name="primitive_cell" >
   <crystal>
    <varray name="basis" >
     <v>      11.20400236       0.00000000       0.00000000 </v>
     <v>       0.00000000      11.20400236       0.00000000 </v>
     <v>       0.00000000       0.00000000      11.20400236 </v>
    </varray>
    <i name="volume">   1406.43470641 </i>
    <varray name="rec_basis" >
     <v>       0.08925382       0.00000000       0.00000000 </v>
     <v>       0.00000000       0.08925382       0.00000000 </v>
     <v>       0.00000000       0.00000000       0.08925382 </v>
    </varray>
   </crystal>
   <varray name="positions" >
    <v>       0.00267761       0.00000000       0.00000000 </v>
    <v>       0.25000000       0.25000000       0.00000000 </v>
    <v>       0.25000000       0.00000000       0.25000000 </v>
    <v>       0.00000000       0.25000000       0.25000000 </v>
    <v>       0.00000000       0.00000000       0.50000000 </v>
    <v>       0.25000000       0.25000000       0.50000000 </v>
    <v>       0.25000000       0.00000000       0.75000000 </v>
    <v>       0.00000000       0.25000000       0.75000000 </v>
    <v>       0.00000000       0.50000000       0.00000000 </v>
    <v>       0.25000000       0.75000000       0.00000000 </v>
    <v>       0.25000000       0.50000000       0.25000000 </v>
    <v>       0.00000000       0.75000000       0.25000000 </v>
    <v>       0.00000000       0.50000000       0.50000000 </v>
    <v>       0.25000000       0.75000000       0.50000000 </v>
    <v>       0.25000000       0.50000000       0.75000000 </v>
    <v>       0.00000000       0.75000000       0.75000000 </v>
    <v>       0.50000000       0.00000000       0.00000000 </v>
    <v>       0.75000000       0.25000000       0.00000000 </v>
    <v>       0.75000000       0.00000000       0.25000000 </v>
    <v>       0.50000000       0.25000000       0.25000000 </v>
    <v>       0.50000000       0.00000000       0.50000000 </v>
    <v>       0.75000000       0.25000000       0.50000000 </v>
    <v>       0.75000000       0.00000000       0.75000000 </v>
    <v>       0.50000000       0.25000000       0.75000000 </v>
    <v>       0.50000000       0.50000000       0.00000000 </v>
    <v>       0.75000000       0.75000000       0.00000000 </v>
    <v>       0.75000000       0.50000000       0.25000000 </v>
    <v>       0.50000000       0.75000000       0.25000000 </v>
    <v>       0.50000000       0.50000000       0.50000000 </v>
    <v>       0.75000000       0.75000000       0.50000000 </v>
    <v>       0.75000000       0.50000000       0.75000000 </v>
    <v>       0.50000000       0.75000000       0.75000000 </v>
    <v>       0.25000000       0.25000000       0.25000000 </v>
    <v>       0.99732239       0.00000000       0.25000000 </v>
    <v>       0.00000000       0.25000000       0.00000000 </v>
    <v>       0.25000000       0.00000000       0.00000000 </v>
    <v>       0.25000000       0.25000000       0.75000000 </v>
    <v>       0.00000000       0.00000000       0.75000000 </v>
    <v>       0.00000000       0.25000000       0.50000000 </v>
    <v>       0.25000000       0.00000000       0.50000000 </v>
    <v>       0.25000000       0.75000000       0.25000000 </v>
    <v>       0.00000000       0.50000000       0.25000000 </v>
    <v>       0.00000000       0.75000000       0.00000000 </v>
    <v>       0.25000000       0.50000000       0.00000000 </v>
    <v>       0.25000000       0.75000000       0.75000000 </v>
    <v>       0.00000000       0.50000000       0.75000000 </v>
    <v>       0.00000000       0.75000000       0.50000000 </v>
    <v>       0.25000000       0.50000000       0.50000000 </v>
    <v>       0.75000000       0.25000000       0.25000000 </v>
    <v>       0.50000000       0.00000000       0.25000000 </v>
    <v>       0.50000000       0.25000000       0.00000000 </v>
    <v>       0.75000000       0.00000000       0.00000000 </v>
    <v>       0.75000000       0.25000000       0.75000000 </v>
    <v>       0.50000000       0.00000000       0.75000000 </v>
    <v>       0.50000000       0.25000000       0.50000000 </v>
    <v>       0.75000000       0.00000000       0.50000000 </v>
    <v>       0.75000000       0.75000000       0.25000000 </v>
    <v>       0.50000000       0.50000000       0.25000000 </v>
    <v>       0.50000000       0.75000000       0.00000000 </v>
    <v>       0.75000000       0.50000000       0.00000000 </v>
    <v>       0.75000000       0.75000000       0.75000000 </v>
    <v>       0.50000000       0.50000000       0.75000000 </v>
    <v>       0.50000000       0.75000000       0.50000000 </v>
    <v>       0.75000000       0.50000000       0.50000000 </v>
   </varray>
  </structure>
  <varray name="primitive_index" >
   <v type="int" >        1 </v>
   <v type="int" >        2 </v>
   <v type="int" >        3 </v>
   <v type="int" >        4 </v>
   <v type="int" >        5 </v>
   <v type="int" >        6 </v>
   <v type="int" >        7 </v>
   <v type="int" >        8 </v>
   <v type="int" >        9 </v>
   <v type="int" >       10 </v>
   <v type="int" >       11 </v>
   <v type="int" >       12 </v>
   <v type="int" >       13 </v>
   <v type="int" >       14 </v>
   <v type="int" >       15 </v>
   <v type="int" >       16 </v>
   <v type="int" >       17 </v>
   <v type="int" >       18 </v>
   <v type="int" >       19 </v>
   <v type="int" >       20 </v>
   <v type="int" >       21 </v>
   <v type="int" >       22 </v>
   <v type="int" >       23 </v>
   <v type="int" >       24 </v>
   <v type="int" >       25 </v>
   <v type="int" >       26 </v>
   <v type="int" >       27 </v>
   <v type="int" >       28 </v>
   <v type="int" >       29 </v>
   <v type="int" >       30 </v>
   <v type="int" >       31 </v>
   <v type="int" >       32 </v>
   <v type="int" >       33 </v>
   <v type="int" >       34 </v>
   <v type="int" >       35 </v>
   <v type="int" >       36 </v>
   <v type="int" >       37 </v>
   <v type="int" >       38 </v>
   <v type="int" >       39 </v>
   <v type="int" >       40 </v>
   <v type="int" >       41 </v>
   <v type="int" >       42 </v>
   <v type="int" >       43 </v>
   <v type="int" >       44 </v>
   <v type="int" >       45 </v>
   <v type="int" >       46 </v>
   <v type="int" >       47 </v>
   <v type="int" >       48 </v>
   <v type="int" >       49 </v>
   <v type="int" >       50 </v>
   <v type="int" >       51 </v>
   <v type="int" >       52 </v>
   <v type="int" >       53 </v>
   <v type="int" >       54 </v>
   <v type="int" >       55 </v>
   <v type="int" >       56 </v>
   <v type="int" >       57 </v>
   <v type="int" >       58 </v>
   <v type="int" >       59 </v>
   <v type="int" >       60 </v>
   <v type="int" >       61 </v>
   <v type="int" >       62 </v>
   <v type="int" >       63 </v>
   <v type="int" >       64 </v>
  </varray>
 </primitive_cell>
 <kpoints>
  <generation param="Gamma">
   <v type="int" name="divisions">       2        2        2 </v>
   <v name="usershift">      0.00000000       0.00000000       0.00000000 </v>
   <v name="genvec1">      0.50000000       0.00000000       0.00000000 </v>
   <v name="genvec2">      0.00000000       0.50000000       0.00000000 </v>
   <v name="genvec3">      0.00000000       0.00000000       0.50000000 </v>
   <v name="shift">      0.00000000       0.00000000       0.00000000 </v>
  </generation>
  <varray name="kpointlist" >
   <v>       0.00000000       0.00000000       0.00000000 </v>
   <v>       0.50000000       0.00000000       0.00000000 </v>
   <v>       0.00000000       0.50000000       0.00000000 </v>
   <v>       0.00000000       0.00000000       0.50000000 </v>
   <v>       0.50000000       0.50000000       0.00000000 </v>
   <v>       0.00000000       0.50000000       0.50000000 </v>
   <v>       0.50000000       0.00000000       0.50000000 </v>
   <v>       0.50000000       0.50000000       0.50000000 </v>
  </varray>
  <varray name="weights" >
   <v>       0.12500000 </v>
   <v>       0.12500000 </v>
   <v>       0.12500000 </v>
   <v>       0.12500000 </v>
   <v>       0.12500000 </v>
   <v>       0.12500000 </v>
   <v>       0.12500000 </v>
   <v>       0.12500000 </v>
  </varray>
 </kpoints>
 <parameters>
  <separator name="general" >
   <i type="string" name="SYSTEM">unknown system</i>
   <i type="logical" name="LCOMPAT"> F  </i>
  </separator>
  <separator name="electronic" >
   <i type="string" name="PREC">accura</i>
   <i name="ENMAX">    341.21360000</i>
   <i name="ENAUG">    368.05600000</i>
   <i name="EDIFF">      0.00000001</i>
   <i type="int" name="IALGO">    38</i>
   <i type="int" name="IWAVPR">    10</i>
   <i type="int" name="NBANDS">   288</i>
   <i type="int" name="NBANDSLOW">    -1</i>
   <i type="int" name="NBANDSHIGH">    -1</i>
   <i name="NELECT">    448.00000000</i>
   <i type="int" name="TURBO">     0</i>
   <i type="int" name="IRESTART">     0</i>
   <i type="int" name="NREBOOT">     0</i>
   <i type="int" name="NMIN">     0</i>
   <i name="EREF">      0.00000000</i>
   <separator name="electronic smearing" >
    <i type="int" name="ISMEAR">     0</i>
    <i name="SIGMA">      0.02000000</i>
    <i name="KSPACING">      0.50000000</i>
    <i type="logical" name="KGAMMA"> T  </i>
    <i type="logical" name="KBLOWUP"> T  </i>
   </separator>
   <separator name="electronic projectors" >
    <i type="logical" name="LREAL"> F  </i>
    <v name="ROPT">      0.00000000      0.00000000</v>
    <i type="int" name="LMAXPAW">  -100</i>
    <i type="int" name="LMAXMIX">     2</i>
    <i type="logical" name="NLSPLINE"> F  </i>
   </separator>
   <separator name="electronic startup" >
    <i type="int" name="ISTART">     0</i>
    <i type="int" name="ICHARG">     2</i>
    <i type="int" name="INIWAV">     1</i>
   </separator>
   <separator name="electronic spin" >
    <i type="int" name="ISPIN">     1</i>
    <i type="logical" name="LNONCOLLINEAR"> F  </i>
    <v name="MAGMOM">      1.00000000      1.00000000      1.00000000      1.00000000      1.00000000      1.00000000      1.00000000      1.00000000      1.00000000      1.00000000      1.00000000      1.00000000      1.00000000      1.00000000      1.00000000      1.00000000      1.00000000      1.00000000      1.00000000      1.00000000
      1.00000000      1.00000000      1.00000000      1.00000000      1.00000000      1.00000000      1.00000000      1.00000000      1.00000000      1.00000000      1.00000000      1.00000000      1.00000000      1.00000000      1.00000000      1.00000000      1.00000000      1.00000000      1.00000000      1.00000000
      1.00000000      1.00000000      1.00000000      1.00000000      1.00000000      1.00000000      1.00000000      1.00000000      1.00000000      1.00000000      1.00000000      1.00000000      1.00000000      1.00000000      1.00000000      1.00000000      1.00000000      1.00000000      1.00000000      1.00000000
      1.00000000      1.00000000      1.00000000      1.00000000</v>
    <i name="NUPDOWN">     -1.00000000</i>
    <i type="logical" name="LSORBIT"> F  </i>
    <v name="SAXIS">      0.00000000      0.00000000      1.00000000</v>
    <i type="logical" name="LSPIRAL"> F  </i>
    <v name="QSPIRAL">      0.00000000      0.00000000      0.00000000</v>
    <i type="logical" name="LZEROZ"> F  </i>
   </separator>
   <separator name="electronic exchange-correlation" >
    <i type="logical" name="LASPH"> F  </i>
    <i type="logical" name="LMETAGGA"> F  </i>
   </separator>
   <separator name="electronic convergence" >
    <i type="int" name="NELM">    60</i>
    <i type="int" name="NELMDL">    -5</i>
    <i type="int" name="NELMIN">     5</i>
    <i name="ENINI">    341.21360000</i>
    <separator name="electronic convergence detail" >
     <i type="logical" name="LDIAG"> T  </i>
     <i type="logical" name="LSUBROT"> F  </i>
     <i name="WEIMIN">      0.00000000</i>
     <i name="EBREAK">      0.00000000</i>
     <i name="DEPER">      0.30000000</i>
     <i type="int" name="NRMM">     4</i>
     <i name="TIME">      0.40000000</i>
    </separator>
   </separator>
   <separator name="electronic mixer" >
    <i name="AMIX">      0.40000000</i>
    <i name="BMIX">      1.00000000</i>
    <i name="AMIN">      0.10000000</i>
    <i name="AMIX_MAG">      1.60000000</i>
    <i name="BMIX_MAG">      1.00000000</i>
    <separator name="electronic mixer details" >
     <i type="int" name="IMIX">     4</i>
     <i type="logical" name="MIXFIRST"> F  </i>
     <i type="int" name="MAXMIX">   -45</i>
     <i name="WC">    100.00000000</i>
     <i type="int" name="INIMIX">     1</i>
     <i type="int" name="MIXPRE">     1</i>
     <i type="int" name="MREMOVE">     5</i>
    </separator>
   </separator>
   <separator name="electronic dipolcorrection" >
    <i type="logical" name="LDIPOL"> F  </i>
    <i type="logical" name="LMONO"> F  </i>
    <i type="int" name="IDIPOL">     0</i>
    <i name="EPSILON">      1.00000000</i>
    <v name="DIPOL">   -100.00000000   -100.00000000   -100.00000000</v>
    <i name="EFIELD">      0.00000000</i>
   </separator>
  </separator>
  <separator name="grids" >
   <i type="int" name="NGX">    70</i>
   <i type="int" name="NGY">    70</i>
   <i type="int" name="NGZ">    70</i>
   <i type="int" name="NGXF">   140</i>
   <i type="int" name="NGYF">   140</i>
   <i type="int" name="NGZF">   140</i>
   <i type="logical" name="ADDGRID"> T  </i>
  </separator>
  <separator name="ionic" >
   <i type="int" name="NSW">     0</i>
   <i type="int" name="IBRION">    -1</i>
   <i type="int" name="MDALGO">     0</i>
   <i type="int" name="ISIF">     2</i>
   <i name="PSTRESS">      0.00000000</i>
   <i name="EDIFFG">      0.00000010</i>
   <i type="int" name="NFREE">     0</i>
   <i name="POTIM">      0.50000000</i>
   <i name="SMASS">     -3.00000000</i>
   <i name="SCALEE">      1.00000000</i>
  </separator>
  <separator name="ionic md" >
   <i name="TEBEG">      0.00010000</i>
   <i name="TEEND">      0.00010000</i>
   <i type="int" name="NBLOCK">     1</i>
   <i type="int" name="KBLOCK">     1</i>
   <i type="int" name="NPACO">   256</i>
   <i name="APACO">     10.00000000</i>
  </separator>
  <separator name="symmetry" >
   <i type="int" name="ISYM">     2</i>
   <i name="SYMPREC">      0.00001000</i>
  </separator>
  <separator name="dos" >
   <i type="int" name="LORBIT">     0</i>
   <v name="RWIGS">     -1.00000000     -1.00000000</v>
   <i type="int" name="NEDOS">   301</i>
   <i name="EMIN">     10.00000000</i>
   <i name="EMAX">    -10.00000000</i>
   <i name="EFERMI">      0.00000000</i>
  </separator>
  <separator name="writing" >
   <i type="int" name="NWRITE">     2</i>
   <i type="logical" name="LWAVE"> F  </i>
   <i type="logical" name="LDOWNSAMPLE"> F  </i>
   <i type="logical" name="LCHARG"> F  </i>
   <i type="logical" name="LPARD"> F  </i>
   <i type="logical" name="LVTOT"> F  </i>
   <i type="logical" name="LVHAR"> F  </i>
   <i type="logical" name="LELF"> F  </i>
   <i type="logical" name="LOPTICS"> F  </i>
   <v name="STM">      0.00000000      0.00000000      0.00000000      0.00000000      0.00000000      0.00000000      0.00000000</v>
  </separator>
  <separator name="performance" >
   <i type="int" name="NPAR">    32</i>
   <i type="int" name="NSIM">     4</i>
   <i type="int" name="NBLK">    -1</i>
   <i type="logical" name="LPLANE"> T  </i>
   <i type="logical" name="LSCALAPACK"> T  </i>
   <i type="logical" name="LSCAAWARE"> F  </i>
   <i type="logical" name="LSCALU"> F  </i>
   <i type="logical" name="LASYNC"> F  </i>
   <i type="logical" name="LORBITALREAL"> F  </i>
  </separator>
  <separator name="miscellaneous" >
   <i type="int" name="IDIOT">     3</i>
   <i type="int" name="PHON_NSTRUCT">    -1</i>
   <i type="logical" name="LMUSIC"> F  </i>
   <v name="POMASS">     22.99000000     35.45300000</v>
   <v name="DARWINR">      0.00000000      0.00000000</v>
   <v name="DARWINV">      1.00000000      1.00000000</v>
   <i type="logical" name="LCORR"> T  </i>
  </separator>
  <i type="logical" name="GGA_COMPAT"> T  </i>
  <i type="logical" name="LBERRY"> F  </i>
  <i type="int" name="ICORELEVEL">     0</i>
  <i type="logical" name="LDAU"> F  </i>
  <i type="int" name="I_CONSTRAINED_M">     0</i>
  <separator name="electronic exchange-correlation" >
   <i type="string" name="GGA">PS</i>
   <i type="int" name="VOSKOWN">     0</i>
   <i type="logical" name="LHFCALC"> F  </i>
   <i type="string" name="PRECFOCK"></i>
   <i type="logical" name="LSYMGRAD"> F  </i>
   <i type="logical" name="LHFONE"> F  </i>
   <i type="logical" name="LRHFCALC"> F  </i>
   <i type="logical" name="LTHOMAS"> F  </i>
   <i type="logical" name="LMODELHF"> F  </i>
   <i type="logical" name="LFOCKACE"> F  </i>
   <i name="ENCUT4O">     -1.00000000</i>
   <i type="int" name="EXXOEP">     0</i>
   <i type="int" name="FOURORBIT">     0</i>
   <i name="AEXX">      0.00000000</i>
   <i name="HFALPHA">      0.00000000</i>
   <i name="MCALPHA">      0.00000000</i>
   <i name="ALDAX">      1.00000000</i>
   <i name="AGGAX">      1.00000000</i>
   <i name="ALDAC">      1.00000000</i>
   <i name="AGGAC">      1.00000000</i>
   <i type="int" name="NKREDX">     1</i>
   <i type="int" name="NKREDY">     1</i>
   <i type="int" name="NKREDZ">     1</i>
   <i type="logical" name="SHIFTRED"> F  </i>
   <i type="logical" name="ODDONLY"> F  </i>
   <i type="logical" name="EVENONLY"> F  </i>
   <i type="int" name="LMAXFOCK">     0</i>
   <i type="int" name="NMAXFOCKAE">     0</i>
   <i type="logical" name="LFOCKAEDFT"> F  </i>
   <i name="HFSCREEN">      0.00000000</i>
   <i name="HFSCREENC">      0.00000000</i>
   <i type="int" name="NBANDSGWLOW">     0</i>
  </separator>
  <separator name="vdW DFT" >
   <i type="logical" name="LUSE_VDW"> F  </i>
   <i name="Zab_VDW">     -0.84910000</i>
   <i name="PARAM1">      0.12340000</i>
   <i name="PARAM2">      1.00000000</i>
   <i name="PARAM3">      0.00000000</i>
  </separator>
  <separator name="model GW" >
   <i type="int" name="MODEL_GW">     0</i>
   <i name="MODEL_EPS0">     13.18532537</i>
   <i name="MODEL_ALPHA">      1.00000000</i>
  </separator>
  <separator name="linear response parameters" >
   <i type="logical" name="LEPSILON"> F  </i>
   <i type="logical" name="LRPA"> F  </i>
   <i type="logical" name="LNABLA"> F  </i>
   <i type="logical" name="LVEL"> F  </i>
   <i name="CSHIFT">      0.10000000</i>
   <i name="OMEGAMAX">     -1.00000000</i>
   <i name="DEG_THRESHOLD">      0.00200000</i>
   <i name="RTIME">     -0.10000000</i>
   <i name="WPLASMAI">      0.00000000</i>
   <v name="DFIELD">      0.00000000      0.00000000      0.00000000</v>
   <v name="WPLASMA">      0.00000000      0.00000000      0.00000000      0.00000000      0.00000000      0.00000000      0.00000000      0.00000000      0.00000000</v>
  </separator>
  <separator name="orbital magnetization" >
   <i type="logical" name="NUCIND"> F  </i>
   <v name="MAGPOS">      0.00000000      0.00000000      0.00000000</v>
   <i type="logical" name="LNICSALL"> T  </i>
   <i type="logical" name="ORBITALMAG"> F  </i>
   <i type="logical" name="LMAGBLOCH"> F  </i>
   <i type="logical" name="LCHIMAG"> F  </i>
   <i type="logical" name="LGAUGE"> T  </i>
   <i type="int" name="MAGATOM">     0</i>
   <v name="MAGDIPOL">      0.00000000      0.00000000      0.00000000</v>
   <v name="AVECCONST">      0.00000000      0.00000000      0.00000000</v>
  </separator>
  <separator name="response functions" >
   <i type="logical" name="LFINITE_TEMPERATURE"> F  </i>
   <i type="logical" name="LADDER"> F  </i>
   <i type="logical" name="LRPAFORCE"> F  </i>
   <i type="logical" name="LFXC"> F  </i>
   <i type="logical" name="LHARTREE"> T  </i>
   <i type="int" name="IBSE">     0</i>
   <v type="int" name="KPOINT">    -1     0     0     0</v>
   <i type="logical" name="LTCTC"> F  </i>
   <i type="logical" name="LTCTE"> F  </i>
   <i type="logical" name="LTETE"> F  </i>
   <i type="logical" name="LTRIPLET"> F  </i>
   <i type="logical" name="LFXCEPS"> F  </i>
   <i type="logical" name="LFXHEG"> F  </i>
   <i type="int" name="NATURALO">     2</i>
   <i type="logical" name="LHOLEGF"> F  </i>
   <i type="logical" name="L2ORDER"> F  </i>
   <i type="logical" name="LDMP1"> F  </i>
   <i type="logical" name="LMP2LT"> F  </i>
   <i type="logical" name="LSMP2LT"> F  </i>
   <i type="logical" name="LGWLF"> F  </i>
   <i name="ENCUTGW">     -2.00000000</i>
   <i name="ENCUTGWSOFT">     -2.00000000</i>
   <i name="ENCUTLF">     -1.00000000</i>
   <i type="logical" name="LESF_SPLINES"> F  </i>
   <i type="int" name="LMAXMP2">    -1</i>
   <i name="SCISSOR">      0.00000000</i>
   <i type="int" name="NOMEGA">     0</i>
   <i type="int" name="NOMEGAR">     0</i>
   <i type="int" name="NBANDSGW">    -1</i>
   <i type="int" name="NBANDSO">    -1</i>
   <i type="int" name="NBANDSV">    -1</i>
   <i type="int" name="NELMGW">     1</i>
   <i type="int" name="NELMHF">     1</i>
   <i type="int" name="DIM">     3</i>
   <i type="int" name="IESPILON">     4</i>
   <i type="int" name="ANTIRES">     0</i>
   <i name="OMEGAMAX">    -30.00000000</i>
   <i name="OMEGAMIN">    -30.00000000</i>
   <i name="OMEGATL">   -200.00000000</i>
   <i type="int" name="OMEGAGRID">     0</i>
   <i name="CSHIFT">     -0.10000000</i>
   <i type="logical" name="LSELFENERGY"> F  </i>
   <i type="logical" name="LSPECTRAL"> F  </i>
   <i type="logical" name="LSPECTRALGW"> F  </i>
   <i type="logical" name="LSINGLES"> F  </i>
   <i type="logical" name="LFERMIGW"> F  </i>
   <i type="logical" name="ODDONLYGW"> F  </i>
   <i type="logical" name="EVENONLYGW"> F  </i>
   <i type="int" name="NKREDLFX">     1</i>
   <i type="int" name="NKREDLFY">     1</i>
   <i type="int" name="NKREDLFZ">     1</i>
   <i type="int" name="MAXMEM">  2800</i>
   <i type="int" name="TELESCOPE">     0</i>
   <i type="int" name="NTAUPAR">    -1</i>
   <i type="int" name="NOMEGAPAR">    -1</i>
   <i name="DAMP_NEWTON">      0.80000001</i>
   <i name="LAMBDA">      1.00000000</i>
  </separator>
  <separator name="External order field" >
   <i name="OFIELD_KAPPA">      0.00000000</i>
   <v name="OFIELD_K">      0.00000000      0.00000000      0.00000000</v>
   <i name="OFIELD_Q6_NEAR">      0.00000000</i>
   <i name="OFIELD_Q6_FAR">      0.00000000</i>
   <i name="OFIELD_A">      0.00000000</i>
  </separator>
  <separator name="optional k-points parameters" >
   <i type="int" name="KPOINTS_OPT_MODE">     1</i>
   <i type="logical" name="LKPOINTS_OPT"> F  </i>
  </separator>
 </parameters>
 <atominfo>
  <atoms>      64 </atoms>
  <types>       2 </types>
  <array name="atoms" >
   <dimension dim="1">ion</dimension>
   <field type="string">element</field>
   <field type="int">atomtype</field>
   <set>
    <rc><c>Na</c><c>   1</c></rc>
    <rc><c>Na</c><c>   1</c></rc>
    <rc><c>Na</c><c>   1</c></rc>
    <rc><c>Na</c><c>   1</c></rc>
    <rc><c>Na</c><c>   1</c></rc>
    <rc><c>Na</c><c>   1</c></rc>
    <rc><c>Na</c><c>   1</c></rc>
    <rc><c>Na</c><c>   1</c></rc>
    <rc><c>Na</c><c>   1</c></rc>
    <rc><c>Na</c><c>   1</c></rc>
    <rc><c>Na</c><c>   1</c></rc>
    <rc><c>Na</c><c>   1</c></rc>
    <rc><c>Na</c><c>   1</c></rc>
    <rc><c>Na</c><c>   1</c></rc>
    <rc><c>Na</c><c>   1</c></rc>
    <rc><c>Na</c><c>   1</c></rc>
    <rc><c>Na</c><c>   1</c></rc>
    <rc><c>Na</c><c>   1</c></rc>
    <rc><c>Na</c><c>   1</c></rc>
    <rc><c>Na</c><c>   1</c></rc>
    <rc><c>Na</c><c>   1</c></rc>
    <rc><c>Na</c><c>   1</c></rc>
    <rc><c>Na</c><c>   1</c></rc>
    <rc><c>Na</c><c>   1</c></rc>
    <rc><c>Na</c><c>   1</c></rc>
    <rc><c>Na</c><c>   1</c></rc>
    <rc><c>Na</c><c>   1</c></rc>
    <rc><c>Na</c><c>   1</c></rc>
    <rc><c>Na</c><c>   1</c></rc>
    <rc><c>Na</c><c>   1</c></rc>
    <rc><c>Na</c><c>   1</c></rc>
    <rc><c>Na</c><c>   1</c></rc>
    <rc><c>Cl</c><c>   2</c></rc>
    <rc><c>Cl</c><c>   2</c></rc>
    <rc><c>Cl</c><c>   2</c></rc>
    <rc><c>Cl</c><c>   2</c></rc>
    <rc><c>Cl</c><c>   2</c></rc>
    <rc><c>Cl</c><c>   2</c></rc>
    <rc><c>Cl</c><c>   2</c></rc>
    <rc><c>Cl</c><c>   2</c></rc>
    <rc><c>Cl</c><c>   2</c></rc>
    <rc><c>Cl</c><c>   2</c></rc>
    <rc><c>Cl</c><c>   2</c></rc>
    <rc><c>Cl</c><c>   2</c></rc>
    <rc><c>Cl</c><c>   2</c></rc>
    <rc><c>Cl</c><c>   2</c></rc>
    <rc><c>Cl</c><c>   2</c></rc>
    <rc><c>Cl</c><c>   2</c></rc>
    <rc><c>Cl</c><c>   2</c></rc>
    <rc><c>Cl</c><c>   2</c></rc>
    <rc><c>Cl</c><c>   2</c></rc>
    <rc><c>Cl</c><c>   2</c></rc>
    <rc><c>Cl</c><c>   2</c></rc>
    <rc><c>Cl</c><c>   2</c></rc>
    <rc><c>Cl</c><c>   2</c></rc>
    <rc><c>Cl</c><c>   2</c></rc>
    <rc><c>Cl</c><c>   2</c></rc>
    <rc><c>Cl</c><c>   2</c></rc>
    <rc><c>Cl</c><c>   2</c></rc>
    <rc><c>Cl</c><c>   2</c></rc>
    <rc><c>Cl</c><c>   2</c></rc>
    <rc><c>Cl</c><c>   2</c></rc>
    <rc><c>Cl</c><c>   2</c></rc>
    <rc><c>Cl</c><c>   2</c></rc>
   </set>
  </array>
  <array name="atomtypes" >
   <dimension dim="1">type</dimension>
   <field type="int">atomspertype</field>
   <field type="string">element</field>
   <field>mass</field>
   <field>valence</field>
   <field type="string">pseudopotential</field>
   <set>
    <rc><c>  32</c><c>Na</c><c>     22.99000000</c><c>      7.00000000</c><c>  PAW_PBE Na_pv 19Sep2006               </c></rc>
    <rc><c>  32</c><c>Cl</c><c>     35.45300000</c><c>      7.00000000</c><c>  PAW_PBE Cl 06Sep2000                  </c></rc>
   </set>
  </array>
 </atominfo>
 <structure name="initialpos" >
  <crystal>
   <varray name="basis" >
    <v>      11.20400236       0.00000000       0.00000000 </v>
    <v>       0.00000000      11.20400236       0.00000000 </v>
    <v>       0.00000000       0.00000000      11.20400236 </v>
   </varray>
   <i name="volume">   1406.43470641 </i>
   <varray name="rec_basis" >
    <v>       0.08925382       0.00000000       0.00000000 </v>
    <v>       0.00000000       0.08925382       0.00000000 </v>
    <v>       0.00000000       0.00000000       0.08925382 </v>
   </varray>
  </crystal>
  <varray name="positions" >
   <v>       0.00267761       0.00000000       0.00000000 </v>
   <v>       0.25000000       0.25000000       0.00000000 </v>
   <v>       0.25000000       0.00000000       0.25000000 </v>
   <v>       0.00000000       0.25000000       0.25000000 </v>
   <v>       0.00000000       0.00000000       0.50000000 </v>
   <v>       0.25000000       0.25000000       0.50000000 </v>
   <v>       0.25000000       0.00000000       0.75000000 </v>
   <v>       0.00000000       0.25000000       0.75000000 </v>
   <v>       0.00000000       0.50000000       0.00000000 </v>
   <v>       0.25000000       0.75000000       0.00000000 </v>
   <v>       0.25000000       0.50000000       0.25000000 </v>
   <v>       0.00000000       0.75000000       0.25000000 </v>
   <v>       0.00000000       0.50000000       0.50000000 </v>
   <v>       0.25000000       0.75000000       0.50000000 </v>
   <v>       0.25000000       0.50000000       0.75000000 </v>
   <v>       0.00000000       0.75000000       0.75000000 </v>
   <v>       0.50000000       0.00000000       0.00000000 </v>
   <v>       0.75000000       0.25000000       0.00000000 </v>
   <v>       0.75000000       0.00000000       0.25000000 </v>
   <v>       0.50000000       0.25000000       0.25000000 </v>
   <v>       0.50000000       0.00000000       0.50000000 </v>
   <v>       0.75000000       0.25000000       0.50000000 </v>
   <v>       0.75000000       0.00000000       0.75000000 </v>
   <v>       0.50000000       0.25000000       0.75000000 </v>
   <v>       0.50000000       0.50000000       0.00000000 </v>
   <v>       0.75000000       0.75000000       0.00000000 </v>
   <v>       0.75000000       0.50000000       0.25000000 </v>
   <v>       0.50000000       0.75000000       0.25000000 </v>
   <v>       0.50000000       0.50000000       0.50000000 </v>
   <v>       0.75000000       0.75000000       0.50000000 </v>
   <v>       0.75000000       0.50000000       0.75000000 </v>
   <v>       0.50000000       0.75000000       0.75000000 </v>
   <v>       0.25000000       0.25000000       0.25000000 </v>
   <v>       0.99732239       0.00000000       0.25000000 </v>
   <v>       0.00000000       0.25000000       0.00000000 </v>
   <v>       0.25000000       0.00000000       0.00000000 </v>
   <v>       0.25000000       0.25000000       0.75000000 </v>
   <v>       0.00000000       0.00000000       0.75000000 </v>
   <v>       0.00000000       0.25000000       0.50000000 </v>
   <v>       0.25000000       0.00000000       0.50000000 </v>
   <v>       0.25000000       0.75000000       0.25000000 </v>
   <v>       0.00000000       0.50000000       0.25000000 </v>
   <v>       0.00000000       0.75000000       0.00000000 </v>
   <v>       0.25000000       0.50000000       0.00000000 </v>
   <v>       0.25000000       0.75000000       0.75000000 </v>
   <v>       0.00000000       0.50000000       0.75000000 </v>
   <v>       0.00000000       0.75000000       0.50000000 </v>
   <v>       0.25000000       0.50000000       0.50000000 </v>
   <v>       0.75000000       0.25000000       0.25000000 </v>
   <v>       0.50000000       0.00000000       0.25000000 </v>
   <v>       0.50000000       0.25000000       0.00000000 </v>
   <v>       0.75000000       0.00000000       0.00000000 </v>
   <v>       0.75000000       0.25000000       0.75000000 </v>
   <v>       0.50000000       0.00000000       0.75000000 </v>
   <v>       0.50000000       0.25000000       0.50000000 </v>
   <v>       0.75000000       0.00000000       0.50000000 </v>
   <v>       0.75000000       0.75000000       0.25000000 </v>
   <v>       0.50000000       0.50000000       0.25000000 </v>
   <v>       0.50000000       0.75000000       0.00000000 </v>
   <v>       0.75000000       0.50000000       0.00000000 </v>
   <v>       0.75000000       0.75000000       0.75000000 </v>
   <v>       0.50000000       0.50000000       0.75000000 </v>
   <v>       0.50000000       0.75000000       0.50000000 </v>
   <v>       0.75000000       0.50000000       0.50000000 </v>
  </varray>
 </structure>
 <calculation>
  <scstep>
   <time name="dav">    9.48    9.53</time>
   <time name="total">    9.55    9.61</time>
   <energy>
    <i name="alphaZ">    751.52672365 </i>
    <i name="ewald"> -22871.36777923 </i>
    <i name="hartreedc">  -8992.22014845 </i>
    <i name="XCdc">   1456.53419535 </i>
    <i name="pawpsdc">  26466.43774078 </i>
    <i name="pawaedc"> -29286.08056155 </i>
    <i name="eentropy">     -0.00234143 </i>
    <i name="bandstr">   -735.04152305 </i>
    <i name="atom">  37532.17946992 </i>
    <i name="e_fr_energy">   4321.96577599 </i>
    <i name="e_wo_entrp">   4321.96811742 </i>
    <i name="e_0_energy">   4321.96694671 </i>
   </energy>
  </scstep>
  <scstep>
   <time name="dav">   10.33   10.39</time>
   <time name="total">   10.33   10.39</time>
   <energy>
    <i name="e_fr_energy">    363.89435230 </i>
    <i name="e_wo_entrp">    363.89435230 </i>
    <i name="e_0_energy">    363.89435230 </i>
   </energy>
  </scstep>
  <scstep>
   <time name="dav">   11.08   11.14</time>
   <time name="total">   11.08   11.14</time>
   <energy>
    <i name="e_fr_energy">   -206.17500899 </i>
    <i name="e_wo_entrp">   -206.17500899 </i>
    <i name="e_0_energy">   -206.17500899 </i>
   </energy>
  </scstep>
  <scstep>
   <time name="dav">   11.01   11.07</time>
   <time name="total">   11.01   11.07</time>
   <energy>
    <i name="e_fr_energy">   -228.19174978 </i>
    <i name="e_wo_entrp">   -228.19174978 </i>
    <i name="e_0_energy">   -228.19174978 </i>
   </energy>
  </scstep>
  <scstep>
   <time name="dav">   11.10   11.17</time>
   <time name="total">   11.45   11.52</time>
   <energy>
    <i name="e_fr_energy">   -229.00325199 </i>
    <i name="e_wo_entrp">   -229.00325199 </i>
    <i name="e_0_energy">   -229.00325199 </i>
   </energy>
  </scstep>
  <scstep>
   <time name="dav">   11.30   11.36</time>
   <time name="total">   11.71   11.78</time>
   <energy>
    <i name="e_fr_energy">   -224.13890405 </i>
    <i name="e_wo_entrp">   -224.13890405 </i>
    <i name="e_0_energy">   -224.13890405 </i>
   </energy>
  </scstep>
  <scstep>
   <time name="dav">   12.18   12.25</time>
   <time name="total">   12.59   12.66</time>
   <energy>
    <i name="e_fr_energy">   -223.77728368 </i>
    <i name="e_wo_entrp">   -223.77728368 </i>
    <i name="e_0_energy">   -223.77728368 </i>
   </energy>
  </scstep>
  <scstep>
   <time name="dav">   10.70   10.76</time>
   <time name="total">   11.11   11.18</time>
   <energy>
    <i name="e_fr_energy">   -223.90250983 </i>
    <i name="e_wo_entrp">   -223.90250983 </i>
    <i name="e_0_energy">   -223.90250983 </i>
   </energy>
  </scstep>
  <scstep>
   <time name="dav">   11.24   11.30</time>
   <time name="total">   11.65   11.71</time>
   <energy>
    <i name="e_fr_energy">   -223.89692916 </i>
    <i name="e_wo_entrp">   -223.89692916 </i>
    <i name="e_0_energy">   -223.89692916 </i>
   </energy>
  </scstep>
  <scstep>
   <time name="dav">   10.80   10.86</time>
   <time name="total">   11.21   11.27</time>
   <energy>
    <i name="e_fr_energy">   -223.90122312 </i>
    <i name="e_wo_entrp">   -223.90122312 </i>
    <i name="e_0_energy">   -223.90122312 </i>
   </energy>
  </scstep>
  <scstep>
   <time name="dav">   11.60   11.66</time>
   <time name="total">   12.01   12.08</time>
   <energy>
    <i name="e_fr_energy">   -223.90051267 </i>
    <i name="e_wo_entrp">   -223.90051267 </i>
    <i name="e_0_energy">   -223.90051267 </i>
   </energy>
  </scstep>
  <scstep>
   <time name="dav">   11.53   11.59</time>
   <time name="total">   11.94   12.01</time>
   <energy>
    <i name="e_fr_energy">   -223.90046982 </i>
    <i name="e_wo_entrp">   -223.90046982 </i>
    <i name="e_0_energy">   -223.90046982 </i>
   </energy>
  </scstep>
  <scstep>
   <time name="dav">   11.09   11.16</time>
   <time name="total">   11.51   11.57</time>
   <energy>
    <i name="e_fr_energy">   -223.90047048 </i>
    <i name="e_wo_entrp">   -223.90047048 </i>
    <i name="e_0_energy">   -223.90047048 </i>
   </energy>
  </scstep>
  <scstep>
   <time name="dav">   11.35   11.42</time>
   <time name="total">   11.76   11.84</time>
   <energy>
    <i name="e_fr_energy">   -223.90047153 </i>
    <i name="e_wo_entrp">   -223.90047153 </i>
    <i name="e_0_energy">   -223.90047153 </i>
   </energy>
  </scstep>
  <scstep>
   <time name="dav">   10.96   11.02</time>
   <time name="total">   11.37   11.43</time>
   <energy>
    <i name="e_fr_energy">   -223.90047300 </i>
    <i name="e_wo_entrp">   -223.90047300 </i>
    <i name="e_0_energy">   -223.90047300 </i>
   </energy>
  </scstep>
  <scstep>
   <time name="dav">   11.29   11.35</time>
   <time name="total">   11.70   11.76</time>
   <energy>
    <i name="e_fr_energy">   -223.90047348 </i>
    <i name="e_wo_entrp">   -223.90047348 </i>
    <i name="e_0_energy">   -223.90047348 </i>
   </energy>
  </scstep>
  <scstep>
   <time name="dav">    8.37    8.42</time>
   <time name="total">    8.79    8.84</time>
   <energy>
    <i name="e_fr_energy">   -223.90047345 </i>
    <i name="e_wo_entrp">   -223.90047345 </i>
    <i name="e_0_energy">   -223.90047345 </i>
   </energy>
  </scstep>
  <scstep>
   <time name="dav">    9.16    9.21</time>
   <time name="total">    9.57    9.63</time>
   <energy>
    <i name="e_fr_energy">   -223.90047356 </i>
    <i name="e_wo_entrp">   -223.90047356 </i>
    <i name="e_0_energy">   -223.90047356 </i>
   </energy>
  </scstep>
  <scstep>
   <time name="dav">    7.23    7.27</time>
   <time name="total">    7.64    7.69</time>
   <energy>
    <i name="e_fr_energy">   -223.90047355 </i>
    <i name="e_wo_entrp">   -223.90047355 </i>
    <i name="e_0_energy">   -223.90047355 </i>
   </energy>
  </scstep>
  <scstep>
   <time name="dav">    7.32    7.36</time>
   <time name="total">    7.74    7.79</time>
   <energy>
    <i name="e_fr_energy">   -223.90047351 </i>
    <i name="e_wo_entrp">   -223.90047351 </i>
    <i name="e_0_energy">   -223.90047351 </i>
   </energy>
  </scstep>
  <scstep>
   <time name="dav">    7.18    7.22</time>
   <time name="total">    7.59    7.63</time>
   <energy>
    <i name="e_fr_energy">   -223.90047345 </i>
    <i name="e_wo_entrp">   -223.90047345 </i>
    <i name="e_0_energy">   -223.90047345 </i>
   </energy>
  </scstep>
  <scstep>
   <time name="dav">    7.13    7.17</time>
   <time name="total">    7.20    7.24</time>
   <energy>
    <i name="alphaZ">    751.52672365 </i>
    <i name="ewald"> -22871.36777923 </i>
    <i name="hartreedc">  -9078.13433392 </i>
    <i name="XCdc">   1472.51333714 </i>
    <i name="pawpsdc">  29498.28607850 </i>
    <i name="pawaedc"> -32317.65069032 </i>
    <i name="eentropy">     -0.00000000 </i>
    <i name="bandstr">  -5211.25327919 </i>
    <i name="atom">  37532.17946992 </i>
    <i name="e_fr_energy">   -223.90047345 </i>
    <i name="e_wo_entrp">   -223.90047345 </i>
    <i name="e_0_energy">   -223.90047345 </i>
   </energy>
  </scstep>
  <structure>
   <crystal>
    <varray name="basis" >
     <v>      11.20400236       0.00000000       0.00000000 </v>
     <v>       0.00000000      11.20400236       0.00000000 </v>
     <v>       0.00000000       0.00000000      11.20400236 </v>
    </varray>
    <i name="volume">   1406.43470641 </i>
    <varray name="rec_basis" >
     <v>       0.08925382       0.00000000       0.00000000 </v>
     <v>       0.00000000       0.08925382       0.00000000 </v>
     <v>       0.00000000       0.00000000       0.08925382 </v>
    </varray>
   </crystal>
   <varray name="positions" >
    <v>       0.00267761       0.00000000       0.00000000 </v>
    <v>       0.25000000       0.25000000       0.00000000 </v>
    <v>       0.25000000       0.00000000       0.25000000 </v>
    <v>       0.00000000       0.25000000       0.25000000 </v>
    <v>       0.00000000       0.00000000       0.50000000 </v>
    <v>       0.25000000       0.25000000       0.50000000 </v>
    <v>       0.25000000       0.00000000       0.75000000 </v>
    <v>       0.00000000       0.25000000       0.75000000 </v>
    <v>       0.00000000       0.50000000       0.00000000 </v>
    <v>       0.25000000       0.75000000       0.00000000 </v>
    <v>       0.25000000       0.50000000       0.25000000 </v>
    <v>       0.00000000       0.75000000       0.25000000 </v>
    <v>       0.00000000       0.50000000       0.50000000 </v>
    <v>       0.25000000       0.75000000       0.50000000 </v>
    <v>       0.25000000       0.50000000       0.75000000 </v>
    <v>       0.00000000       0.75000000       0.75000000 </v>
    <v>       0.50000000       0.00000000       0.00000000 </v>
    <v>       0.75000000       0.25000000       0.00000000 </v>
    <v>       0.75000000       0.00000000       0.25000000 </v>
    <v>       0.50000000       0.25000000       0.25000000 </v>
    <v>       0.50000000       0.00000000       0.50000000 </v>
    <v>       0.75000000       0.25000000       0.50000000 </v>
    <v>       0.75000000       0.00000000       0.75000000 </v>
    <v>       0.50000000       0.25000000       0.75000000 </v>
    <v>       0.50000000       0.50000000       0.00000000 </v>
    <v>       0.75000000       0.75000000       0.00000000 </v>
    <v>       0.75000000       0.50000000       0.25000000 </v>
    <v>       0.50000000       0.75000000       0.25000000 </v>
    <v>       0.50000000       0.50000000       0.50000000 </v>
    <v>       0.75000000       0.75000000       0.50000000 </v>
    <v>       0.75000000       0.50000000       0.75000000 </v>
    <v>       0.50000000       0.75000000       0.75000000 </v>
    <v>       0.25000000       0.25000000       0.25000000 </v>
    <v>       0.99732239       0.00000000       0.25000000 </v>
    <v>       0.00000000       0.25000000       0.00000000 </v>
    <v>       0.25000000       0.00000000       0.00000000 </v>
    <v>       0.25000000       0.25000000       0.75000000 </v>
    <v>       0.00000000       0.00000000       0.75000000 </v>
    <v>       0.00000000       0.25000000       0.50000000 </v>
    <v>       0.25000000       0.00000000       0.50000000 </v>
    <v>       0.25000000       0.75000000       0.25000000 </v>
    <v>       0.00000000       0.50000000       0.25000000 </v>
    <v>       0.00000000       0.75000000       0.00000000 </v>
    <v>       0.25000000       0.50000000       0.00000000 </v>
    <v>       0.25000000       0.75000000       0.75000000 </v>
    <v>       0.00000000       0.50000000       0.75000000 </v>
    <v>       0.00000000       0.75000000       0.50000000 </v>
    <v>       0.25000000       0.50000000       0.50000000 </v>
    <v>       0.75000000       0.25000000       0.25000000 </v>
    <v>       0.50000000       0.00000000       0.25000000 </v>
    <v>       0.50000000       0.25000000       0.00000000 </v>
    <v>       0.75000000       0.00000000       0.00000000 </v>
    <v>       0.75000000       0.25000000       0.75000000 </v>
    <v>       0.50000000       0.00000000       0.75000000 </v>
    <v>       0.50000000       0.25000000       0.50000000 </v>
    <v>       0.75000000       0.00000000       0.50000000 </v>
    <v>       0.75000000       0.75000000       0.25000000 </v>
    <v>       0.50000000       0.50000000       0.25000000 </v>
    <v>       0.50000000       0.75000000       0.00000000 </v>
    <v>       0.75000000       0.50000000       0.00000000 </v>
    <v>       0.75000000       0.75000000       0.75000000 </v>
    <v>       0.50000000       0.50000000       0.75000000 </v>
    <v>       0.50000000       0.75000000       0.50000000 </v>
    <v>       0.75000000       0.50000000       0.50000000 </v>
   </varray>
  </structure>
  <varray name="forces" >
   <v>      -0.06783449      -0.00000000       0.00021053 </v>
   <v>       0.00175112       0.00722015      -0.00129121 </v>
   <v>      -0.01469410      -0.00000000       0.00594728 </v>
   <v>      -0.00667591      -0.00013139      -0.00000291 </v>
   <v>      -0.00506278      -0.00000000      -0.00013878 </v>
   <v>       0.00019747       0.00121072       0.00129024 </v>
   <v>       0.00136281      -0.00000000      -0.00593274 </v>
   <v>      -0.00227134      -0.00002023       0.00001278 </v>
   <v>      -0.00066078      -0.00000000       0.00000212 </v>
   <v>       0.00175112      -0.00722015      -0.00129121 </v>
   <v>      -0.00018599      -0.00000000      -0.00007621 </v>
   <v>      -0.00667591       0.00013139      -0.00000291 </v>
   <v>      -0.00106107      -0.00000000      -0.00000146 </v>
   <v>       0.00019747      -0.00121072       0.00129024 </v>
   <v>      -0.00003024      -0.00000000       0.00007592 </v>
   <v>      -0.00227134       0.00002023       0.00001278 </v>
   <v>       0.01174902      -0.00000000       0.00000773 </v>
   <v>       0.00171937      -0.00709524       0.00129711 </v>
   <v>      -0.01876456      -0.00000000      -0.00577893 </v>
   <v>       0.00399822       0.00000251       0.00000555 </v>
   <v>       0.00314420      -0.00000000      -0.00000146 </v>
   <v>       0.00019713      -0.00122745      -0.00129850 </v>
   <v>       0.00134019      -0.00000000       0.00579416 </v>
   <v>       0.00183308       0.00000145      -0.00000563 </v>
   <v>       0.00097906      -0.00000000       0.00000260 </v>
   <v>       0.00171937       0.00709524       0.00129711 </v>
   <v>      -0.00018713      -0.00000000       0.00007457 </v>
   <v>       0.00399822      -0.00000251       0.00000555 </v>
   <v>       0.00111152      -0.00000000      -0.00000259 </v>
   <v>       0.00019713       0.00122745      -0.00129850 </v>
   <v>      -0.00002588      -0.00000000      -0.00007473 </v>
   <v>       0.00183308      -0.00000145      -0.00000563 </v>
   <v>      -0.00408017      -0.00704917      -0.00131337 </v>
   <v>       0.08105710      -0.00000000      -0.00031035 </v>
   <v>       0.00734001      -0.00016959       0.00003395 </v>
   <v>       0.01635981      -0.00000000       0.00575386 </v>
   <v>      -0.00017992      -0.00187401       0.00130868 </v>
   <v>       0.00655034      -0.00000000       0.00013877 </v>
   <v>       0.00293758      -0.00000598      -0.00001928 </v>
   <v>      -0.00368176      -0.00000000      -0.00573619 </v>
   <v>      -0.00408017       0.00704917      -0.00131337 </v>
   <v>       0.00214959      -0.00000000       0.00000581 </v>
   <v>       0.00734001       0.00016959       0.00003395 </v>
   <v>       0.00020730      -0.00000000       0.00056979 </v>
   <v>      -0.00017992       0.00187401       0.00130868 </v>
   <v>       0.00111944      -0.00000000      -0.00000547 </v>
   <v>       0.00293758       0.00000598      -0.00001928 </v>
   <v>       0.00003762      -0.00000000      -0.00056884 </v>
   <v>      -0.00415939       0.00715882       0.00127607 </v>
   <v>      -0.00668136      -0.00000000      -0.00001845 </v>
   <v>      -0.00438486      -0.00001117      -0.00000205 </v>
   <v>       0.01226319      -0.00000000      -0.00586535 </v>
   <v>      -0.00018854       0.00185794      -0.00127987 </v>
   <v>      -0.00479696      -0.00000000       0.00001574 </v>
   <v>      -0.00221998       0.00000251       0.00000305 </v>
   <v>      -0.00378818      -0.00000000       0.00588303 </v>
   <v>      -0.00415939      -0.00715882       0.00127607 </v>
   <v>      -0.00263412      -0.00000000      -0.00000087 </v>
   <v>      -0.00438486       0.00001117      -0.00000205 </v>
   <v>       0.00019318      -0.00000000      -0.00057563 </v>
   <v>      -0.00018854      -0.00185794      -0.00127987 </v>
   <v>      -0.00120188      -0.00000000       0.00000166 </v>
   <v>      -0.00221998      -0.00000251       0.00000305 </v>
   <v>       0.00003916      -0.00000000       0.00057526 </v>
  </varray>
  <varray name="stress" >
   <v>      -0.35608528       0.00000000      -0.00009467 </v>
   <v>       0.00000000      -0.37857278       0.00000000 </v>
   <v>      -0.00009481       0.00000000      -0.37933657 </v>
  </varray>
  <energy>
   <i name="e_fr_energy">   -223.90047345 </i>
   <i name="e_wo_entrp">   -223.90047345 </i>
   <i name="e_0_energy">   -223.90047345 </i>
  </energy>
  <time name="totalsc">  245.37  246.76</time>
  <eigenvalues>
   <array>
    <dimension dim="1">band</dimension>
    <dimension dim="2">kpoint</dimension>
    <dimension dim="3">spin</dimension>
    <field>eigene</field>
    <field>occ</field>
    <set>
     <set comment="spin 1">
      <set comment="kpoint 1">
       <r>  -21.3139    1.0000 </r>
       <r>  -21.3134    1.0000 </r>
       <r>  -21.3128    1.0000 </r>
       <r>  -21.3042    1.0000 </r>
       <r>  -21.3022    1.0000 </r>
       <r>  -21.3021    1.0000 </r>
       <r>  -21.3017    1.0000 </r>
       <r>  -21.2958    1.0000 </r>
       <r>  -21.2955    1.0000 </r>
       <r>  -21.2952    1.0000 </r>
       <r>  -21.2949    1.0000 </r>
       <r>  -21.2948    1.0000 </r>
       <r>  -21.2944    1.0000 </r>
       <r>  -21.2942    1.0000 </r>
       <r>  -21.2930    1.0000 </r>
       <r>  -21.2929    1.0000 </r>
       <r>  -21.2929    1.0000 </r>
       <r>  -21.2921    1.0000 </r>
       <r>  -21.2911    1.0000 </r>
       <r>  -21.2906    1.0000 </r>
       <r>  -21.2902    1.0000 </r>
       <r>  -21.2888    1.0000 </r>
       <r>  -21.2883    1.0000 </r>
       <r>  -21.2882    1.0000 </r>
       <r>  -21.2864    1.0000 </r>
       <r>  -21.2860    1.0000 </r>
       <r>  -21.2857    1.0000 </r>
       <r>  -21.2856    1.0000 </r>
       <r>  -21.2856    1.0000 </r>
       <r>  -21.2852    1.0000 </r>
       <r>  -21.2851    1.0000 </r>
       <r>  -21.2844    1.0000 </r>
       <r>  -21.2844    1.0000 </r>
       <r>  -21.2838    1.0000 </r>
       <r>  -21.2836    1.0000 </r>
       <r>  -21.2835    1.0000 </r>
       <r>  -21.2832    1.0000 </r>
       <r>  -21.2831    1.0000 </r>
       <r>  -21.2827    1.0000 </r>
       <r>  -21.2826    1.0000 </r>
       <r>  -21.2818    1.0000 </r>
       <r>  -21.2818    1.0000 </r>
       <r>  -21.2814    1.0000 </r>
       <r>  -21.2813    1.0000 </r>
       <r>  -21.2812    1.0000 </r>
       <r>  -21.2810    1.0000 </r>
       <r>  -21.2810    1.0000 </r>
       <r>  -21.2804    1.0000 </r>
       <r>  -21.2800    1.0000 </r>
       <r>  -21.2800    1.0000 </r>
       <r>  -21.2799    1.0000 </r>
       <r>  -21.2799    1.0000 </r>
       <r>  -21.2798    1.0000 </r>
       <r>  -21.2798    1.0000 </r>
       <r>  -21.2798    1.0000 </r>
       <r>  -21.2796    1.0000 </r>
       <r>  -21.2794    1.0000 </r>
       <r>  -21.2788    1.0000 </r>
       <r>  -21.2777    1.0000 </r>
       <r>  -21.2773    1.0000 </r>
       <r>  -21.2761    1.0000 </r>
       <r>  -21.2760    1.0000 </r>
       <r>  -21.2760    1.0000 </r>
       <r>  -21.2756    1.0000 </r>
       <r>  -21.2756    1.0000 </r>
       <r>  -21.2756    1.0000 </r>
       <r>  -21.2743    1.0000 </r>
       <r>  -21.2742    1.0000 </r>
       <r>  -21.2742    1.0000 </r>
       <r>  -21.2741    1.0000 </r>
       <r>  -21.2740    1.0000 </r>
       <r>  -21.2724    1.0000 </r>
       <r>  -21.2718    1.0000 </r>
       <r>  -21.2718    1.0000 </r>
       <r>  -21.2718    1.0000 </r>
       <r>  -21.2718    1.0000 </r>
       <r>  -21.2717    1.0000 </r>
       <r>  -21.2716    1.0000 </r>
       <r>  -21.2713    1.0000 </r>
       <r>  -21.2710    1.0000 </r>
       <r>  -21.2707    1.0000 </r>
       <r>  -21.2705    1.0000 </r>
       <r>  -21.2705    1.0000 </r>
       <r>  -21.2699    1.0000 </r>
       <r>  -21.2699    1.0000 </r>
       <r>  -21.2697    1.0000 </r>
       <r>  -21.2683    1.0000 </r>
       <r>  -21.2682    1.0000 </r>
       <r>  -21.2682    1.0000 </r>
       <r>  -21.2677    1.0000 </r>
       <r>  -21.2673    1.0000 </r>
       <r>  -21.2650    1.0000 </r>
       <r>  -21.2648    1.0000 </r>
       <r>  -21.2505    1.0000 </r>
       <r>  -21.2504    1.0000 </r>
       <r>  -21.2500    1.0000 </r>
       <r>  -13.3582    1.0000 </r>
       <r>  -13.1438    1.0000 </r>
       <r>  -13.1376    1.0000 </r>
       <r>  -13.1375    1.0000 </r>
       <r>  -13.1374    1.0000 </r>
       <r>  -13.1372    1.0000 </r>
       <r>  -13.1330    1.0000 </r>
       <r>  -13.0252    1.0000 </r>
       <r>  -13.0153    1.0000 </r>
       <r>  -13.0125    1.0000 </r>
       <r>  -13.0114    1.0000 </r>
       <r>  -13.0112    1.0000 </r>
       <r>  -13.0112    1.0000 </r>
       <r>  -13.0111    1.0000 </r>
       <r>  -13.0111    1.0000 </r>
       <r>  -13.0111    1.0000 </r>
       <r>  -13.0099    1.0000 </r>
       <r>  -13.0093    1.0000 </r>
       <r>  -13.0044    1.0000 </r>
       <r>  -12.9900    1.0000 </r>
       <r>  -12.9899    1.0000 </r>
       <r>  -12.9878    1.0000 </r>
       <r>  -12.9856    1.0000 </r>
       <r>  -12.9435    1.0000 </r>
       <r>  -12.9408    1.0000 </r>
       <r>  -12.9400    1.0000 </r>
       <r>  -12.9242    1.0000 </r>
       <r>  -12.9215    1.0000 </r>
       <r>  -12.9211    1.0000 </r>
       <r>  -12.9211    1.0000 </r>
       <r>  -12.9208    1.0000 </r>
       <r>  -12.9118    1.0000 </r>
       <r>   -2.7001    1.0000 </r>
       <r>   -2.7001    1.0000 </r>
       <r>   -2.7000    1.0000 </r>
       <r>   -2.6999    1.0000 </r>
       <r>   -2.4241    1.0000 </r>
       <r>   -2.4240    1.0000 </r>
       <r>   -2.4240    1.0000 </r>
       <r>   -2.2078    1.0000 </r>
       <r>   -2.2074    1.0000 </r>
       <r>   -2.2053    1.0000 </r>
       <r>   -2.2049    1.0000 </r>
       <r>   -2.2045    1.0000 </r>
       <r>   -2.2042    1.0000 </r>
       <r>   -2.2042    1.0000 </r>
       <r>   -2.2042    1.0000 </r>
       <r>   -2.2036    1.0000 </r>
       <r>   -2.2033    1.0000 </r>
       <r>   -2.2012    1.0000 </r>
       <r>   -2.2009    1.0000 </r>
       <r>   -1.9282    1.0000 </r>
       <r>   -1.9280    1.0000 </r>
       <r>   -1.9263    1.0000 </r>
       <r>   -1.9260    1.0000 </r>
       <r>   -1.9247    1.0000 </r>
       <r>   -1.9247    1.0000 </r>
       <r>   -1.9246    1.0000 </r>
       <r>   -1.9246    1.0000 </r>
       <r>   -1.9233    1.0000 </r>
       <r>   -1.9231    1.0000 </r>
       <r>   -1.9216    1.0000 </r>
       <r>   -1.9213    1.0000 </r>
       <r>   -1.7976    1.0000 </r>
       <r>   -1.7967    1.0000 </r>
       <r>   -1.7966    1.0000 </r>
       <r>   -1.7966    1.0000 </r>
       <r>   -1.7965    1.0000 </r>
       <r>   -1.7956    1.0000 </r>
       <r>   -1.5090    1.0000 </r>
       <r>   -1.5084    1.0000 </r>
       <r>   -1.5064    1.0000 </r>
       <r>   -1.5059    1.0000 </r>
       <r>   -1.5057    1.0000 </r>
       <r>   -1.5054    1.0000 </r>
       <r>   -1.5053    1.0000 </r>
       <r>   -1.5053    1.0000 </r>
       <r>   -1.5051    1.0000 </r>
       <r>   -1.5041    1.0000 </r>
       <r>   -1.5025    1.0000 </r>
       <r>   -1.5023    1.0000 </r>
       <r>   -1.4644    1.0000 </r>
       <r>   -1.4630    1.0000 </r>
       <r>   -1.4628    1.0000 </r>
       <r>   -1.4626    1.0000 </r>
       <r>   -1.4623    1.0000 </r>
       <r>   -1.4610    1.0000 </r>
       <r>   -1.2948    1.0000 </r>
       <r>   -1.2948    1.0000 </r>
       <r>   -1.2947    1.0000 </r>
       <r>   -1.2945    1.0000 </r>
       <r>   -1.2945    1.0000 </r>
       <r>   -1.2943    1.0000 </r>
       <r>   -1.0065    1.0000 </r>
       <r>   -1.0048    1.0000 </r>
       <r>   -1.0040    1.0000 </r>
       <r>   -1.0018    1.0000 </r>
       <r>   -1.0013    1.0000 </r>
       <r>   -1.0010    1.0000 </r>
       <r>   -1.0007    1.0000 </r>
       <r>   -1.0007    1.0000 </r>
       <r>   -1.0002    1.0000 </r>
       <r>   -1.0000    1.0000 </r>
       <r>   -0.9970    1.0000 </r>
       <r>   -0.9954    1.0000 </r>
       <r>   -0.9575    1.0000 </r>
       <r>   -0.9562    1.0000 </r>
       <r>   -0.9495    1.0000 </r>
       <r>   -0.9485    1.0000 </r>
       <r>   -0.9479    1.0000 </r>
       <r>   -0.9477    1.0000 </r>
       <r>   -0.9476    1.0000 </r>
       <r>   -0.9476    1.0000 </r>
       <r>   -0.9474    1.0000 </r>
       <r>   -0.9471    1.0000 </r>
       <r>   -0.9470    1.0000 </r>
       <r>   -0.9467    1.0000 </r>
       <r>   -0.9458    1.0000 </r>
       <r>   -0.9457    1.0000 </r>
       <r>   -0.9456    1.0000 </r>
       <r>   -0.9455    1.0000 </r>
       <r>   -0.9445    1.0000 </r>
       <r>   -0.9424    1.0000 </r>
       <r>   -0.9369    1.0000 </r>
       <r>   -0.9360    1.0000 </r>
       <r>   -0.6648    1.0000 </r>
       <r>   -0.6647    1.0000 </r>
       <r>   -0.6647    1.0000 </r>
       <r>    4.3402    0.0000 </r>
       <r>    6.3593    0.0000 </r>
       <r>    6.3678    0.0000 </r>
       <r>    6.3679    0.0000 </r>
       <r>    6.3682    0.0000 </r>
       <r>    6.3682    0.0000 </r>
       <r>    6.3763    0.0000 </r>
       <r>    6.4446    0.0000 </r>
       <r>    6.4446    0.0000 </r>
       <r>    6.4447    0.0000 </r>
       <r>    6.4450    0.0000 </r>
       <r>    6.8278    0.0000 </r>
       <r>    6.8280    0.0000 </r>
       <r>    6.8281    0.0000 </r>
       <r>    7.2067    0.0000 </r>
       <r>    7.2067    0.0000 </r>
       <r>    7.2069    0.0000 </r>
       <r>    7.4528    0.0000 </r>
       <r>    7.4572    0.0000 </r>
       <r>    7.4583    0.0000 </r>
       <r>    7.4633    0.0000 </r>
       <r>    7.4641    0.0000 </r>
       <r>    7.4642    0.0000 </r>
       <r>    7.4642    0.0000 </r>
       <r>    7.4642    0.0000 </r>
       <r>    7.4651    0.0000 </r>
       <r>    7.4702    0.0000 </r>
       <r>    7.4713    0.0000 </r>
       <r>    7.4750    0.0000 </r>
       <r>    8.1618    0.0000 </r>
       <r>    8.1681    0.0000 </r>
       <r>    8.1682    0.0000 </r>
       <r>    8.1684    0.0000 </r>
       <r>    8.1684    0.0000 </r>
       <r>    8.1751    0.0000 </r>
       <r>    8.2776    0.0000 </r>
       <r>    8.2794    0.0000 </r>
       <r>    8.2794    0.0000 </r>
       <r>    8.2795    0.0000 </r>
       <r>    8.2796    0.0000 </r>
       <r>    8.2816    0.0000 </r>
       <r>    8.8871    0.0000 </r>
       <r>    8.8874    0.0000 </r>
       <r>    8.8970    0.0000 </r>
       <r>    8.8992    0.0000 </r>
       <r>    8.8996    0.0000 </r>
       <r>    8.8998    0.0000 </r>
       <r>    8.9007    0.0000 </r>
       <r>    8.9013    0.0000 </r>
       <r>    8.9020    0.0000 </r>
       <r>    8.9038    0.0000 </r>
       <r>    8.9057    0.0000 </r>
       <r>    8.9068    0.0000 </r>
       <r>    8.9107    0.0000 </r>
       <r>    8.9130    0.0000 </r>
       <r>    8.9150    0.0000 </r>
       <r>    8.9156    0.0000 </r>
       <r>    8.9165    0.0000 </r>
       <r>    8.9173    0.0000 </r>
       <r>    8.9180    0.0000 </r>
       <r>    8.9188    0.0000 </r>
       <r>    8.9203    0.0000 </r>
       <r>    8.9266    0.0000 </r>
       <r>    8.9318    0.0000 </r>
      </set>
      <set comment="kpoint 2">
       <r>  -21.3137    1.0000 </r>
       <r>  -21.3131    1.0000 </r>
       <r>  -21.3125    1.0000 </r>
       <r>  -21.3013    1.0000 </r>
       <r>  -21.3009    1.0000 </r>
       <r>  -21.3008    1.0000 </r>
       <r>  -21.2992    1.0000 </r>
       <r>  -21.2979    1.0000 </r>
       <r>  -21.2976    1.0000 </r>
       <r>  -21.2949    1.0000 </r>
       <r>  -21.2949    1.0000 </r>
       <r>  -21.2945    1.0000 </r>
       <r>  -21.2944    1.0000 </r>
       <r>  -21.2941    1.0000 </r>
       <r>  -21.2938    1.0000 </r>
       <r>  -21.2938    1.0000 </r>
       <r>  -21.2935    1.0000 </r>
       <r>  -21.2933    1.0000 </r>
       <r>  -21.2924    1.0000 </r>
       <r>  -21.2909    1.0000 </r>
       <r>  -21.2902    1.0000 </r>
       <r>  -21.2888    1.0000 </r>
       <r>  -21.2886    1.0000 </r>
       <r>  -21.2885    1.0000 </r>
       <r>  -21.2885    1.0000 </r>
       <r>  -21.2883    1.0000 </r>
       <r>  -21.2876    1.0000 </r>
       <r>  -21.2876    1.0000 </r>
       <r>  -21.2874    1.0000 </r>
       <r>  -21.2872    1.0000 </r>
       <r>  -21.2863    1.0000 </r>
       <r>  -21.2859    1.0000 </r>
       <r>  -21.2858    1.0000 </r>
       <r>  -21.2856    1.0000 </r>
       <r>  -21.2853    1.0000 </r>
       <r>  -21.2833    1.0000 </r>
       <r>  -21.2831    1.0000 </r>
       <r>  -21.2823    1.0000 </r>
       <r>  -21.2822    1.0000 </r>
       <r>  -21.2820    1.0000 </r>
       <r>  -21.2819    1.0000 </r>
       <r>  -21.2818    1.0000 </r>
       <r>  -21.2816    1.0000 </r>
       <r>  -21.2816    1.0000 </r>
       <r>  -21.2802    1.0000 </r>
       <r>  -21.2801    1.0000 </r>
       <r>  -21.2800    1.0000 </r>
       <r>  -21.2797    1.0000 </r>
       <r>  -21.2794    1.0000 </r>
       <r>  -21.2781    1.0000 </r>
       <r>  -21.2778    1.0000 </r>
       <r>  -21.2778    1.0000 </r>
       <r>  -21.2777    1.0000 </r>
       <r>  -21.2775    1.0000 </r>
       <r>  -21.2773    1.0000 </r>
       <r>  -21.2771    1.0000 </r>
       <r>  -21.2770    1.0000 </r>
       <r>  -21.2770    1.0000 </r>
       <r>  -21.2766    1.0000 </r>
       <r>  -21.2763    1.0000 </r>
       <r>  -21.2763    1.0000 </r>
       <r>  -21.2762    1.0000 </r>
       <r>  -21.2760    1.0000 </r>
       <r>  -21.2759    1.0000 </r>
       <r>  -21.2758    1.0000 </r>
       <r>  -21.2755    1.0000 </r>
       <r>  -21.2754    1.0000 </r>
       <r>  -21.2753    1.0000 </r>
       <r>  -21.2741    1.0000 </r>
       <r>  -21.2737    1.0000 </r>
       <r>  -21.2733    1.0000 </r>
       <r>  -21.2727    1.0000 </r>
       <r>  -21.2727    1.0000 </r>
       <r>  -21.2720    1.0000 </r>
       <r>  -21.2720    1.0000 </r>
       <r>  -21.2718    1.0000 </r>
       <r>  -21.2718    1.0000 </r>
       <r>  -21.2718    1.0000 </r>
       <r>  -21.2718    1.0000 </r>
       <r>  -21.2715    1.0000 </r>
       <r>  -21.2712    1.0000 </r>
       <r>  -21.2712    1.0000 </r>
       <r>  -21.2711    1.0000 </r>
       <r>  -21.2709    1.0000 </r>
       <r>  -21.2704    1.0000 </r>
       <r>  -21.2700    1.0000 </r>
       <r>  -21.2685    1.0000 </r>
       <r>  -21.2685    1.0000 </r>
       <r>  -21.2684    1.0000 </r>
       <r>  -21.2680    1.0000 </r>
       <r>  -21.2680    1.0000 </r>
       <r>  -21.2651    1.0000 </r>
       <r>  -21.2649    1.0000 </r>
       <r>  -21.2506    1.0000 </r>
       <r>  -21.2504    1.0000 </r>
       <r>  -21.2501    1.0000 </r>
       <r>  -13.2957    1.0000 </r>
       <r>  -13.2870    1.0000 </r>
       <r>  -13.1073    1.0000 </r>
       <r>  -13.1006    1.0000 </r>
       <r>  -13.1002    1.0000 </r>
       <r>  -13.0992    1.0000 </r>
       <r>  -13.0946    1.0000 </r>
       <r>  -13.0937    1.0000 </r>
       <r>  -13.0933    1.0000 </r>
       <r>  -13.0893    1.0000 </r>
       <r>  -13.0135    1.0000 </r>
       <r>  -13.0078    1.0000 </r>
       <r>  -13.0008    1.0000 </r>
       <r>  -13.0006    1.0000 </r>
       <r>  -13.0006    1.0000 </r>
       <r>  -13.0005    1.0000 </r>
       <r>  -12.9995    1.0000 </r>
       <r>  -12.9934    1.0000 </r>
       <r>  -12.9930    1.0000 </r>
       <r>  -12.9876    1.0000 </r>
       <r>  -12.9529    1.0000 </r>
       <r>  -12.9477    1.0000 </r>
       <r>  -12.9472    1.0000 </r>
       <r>  -12.9465    1.0000 </r>
       <r>  -12.9410    1.0000 </r>
       <r>  -12.9400    1.0000 </r>
       <r>  -12.9398    1.0000 </r>
       <r>  -12.9381    1.0000 </r>
       <r>  -12.9353    1.0000 </r>
       <r>  -12.9312    1.0000 </r>
       <r>  -12.9310    1.0000 </r>
       <r>  -12.9183    1.0000 </r>
       <r>   -2.5112    1.0000 </r>
       <r>   -2.5105    1.0000 </r>
       <r>   -2.5067    1.0000 </r>
       <r>   -2.5053    1.0000 </r>
       <r>   -2.5033    1.0000 </r>
       <r>   -2.5020    1.0000 </r>
       <r>   -2.4984    1.0000 </r>
       <r>   -2.4976    1.0000 </r>
       <r>   -2.2916    1.0000 </r>
       <r>   -2.2915    1.0000 </r>
       <r>   -2.2838    1.0000 </r>
       <r>   -2.2838    1.0000 </r>
       <r>   -2.2790    1.0000 </r>
       <r>   -2.2696    1.0000 </r>
       <r>   -2.1427    1.0000 </r>
       <r>   -2.1381    1.0000 </r>
       <r>   -2.1369    1.0000 </r>
       <r>   -2.1366    1.0000 </r>
       <r>   -2.1362    1.0000 </r>
       <r>   -2.1361    1.0000 </r>
       <r>   -2.1349    1.0000 </r>
       <r>   -2.1304    1.0000 </r>
       <r>   -1.9889    1.0000 </r>
       <r>   -1.9889    1.0000 </r>
       <r>   -1.9871    1.0000 </r>
       <r>   -1.9864    1.0000 </r>
       <r>   -1.9841    1.0000 </r>
       <r>   -1.9837    1.0000 </r>
       <r>   -1.9820    1.0000 </r>
       <r>   -1.9819    1.0000 </r>
       <r>   -1.8143    1.0000 </r>
       <r>   -1.8131    1.0000 </r>
       <r>   -1.8125    1.0000 </r>
       <r>   -1.8111    1.0000 </r>
       <r>   -1.8064    1.0000 </r>
       <r>   -1.8051    1.0000 </r>
       <r>   -1.8045    1.0000 </r>
       <r>   -1.8033    1.0000 </r>
       <r>   -1.5032    1.0000 </r>
       <r>   -1.5032    1.0000 </r>
       <r>   -1.4922    1.0000 </r>
       <r>   -1.4922    1.0000 </r>
       <r>   -1.3900    1.0000 </r>
       <r>   -1.3807    1.0000 </r>
       <r>   -1.3801    1.0000 </r>
       <r>   -1.3712    1.0000 </r>
       <r>   -1.2168    1.0000 </r>
       <r>   -1.2167    1.0000 </r>
       <r>   -1.2085    1.0000 </r>
       <r>   -1.2084    1.0000 </r>
       <r>   -1.1968    1.0000 </r>
       <r>   -1.1945    1.0000 </r>
       <r>   -1.1932    1.0000 </r>
       <r>   -1.1925    1.0000 </r>
       <r>   -1.1912    1.0000 </r>
       <r>   -1.1897    1.0000 </r>
       <r>   -1.1895    1.0000 </r>
       <r>   -1.1875    1.0000 </r>
       <r>   -1.1818    1.0000 </r>
       <r>   -1.1797    1.0000 </r>
       <r>   -1.1768    1.0000 </r>
       <r>   -1.1767    1.0000 </r>
       <r>   -1.1726    1.0000 </r>
       <r>   -1.1700    1.0000 </r>
       <r>   -1.1685    1.0000 </r>
       <r>   -1.1664    1.0000 </r>
       <r>   -1.1648    1.0000 </r>
       <r>   -1.1643    1.0000 </r>
       <r>   -1.1634    1.0000 </r>
       <r>   -1.1631    1.0000 </r>
       <r>   -1.1563    1.0000 </r>
       <r>   -1.1538    1.0000 </r>
       <r>   -1.1537    1.0000 </r>
       <r>   -1.1513    1.0000 </r>
       <r>   -1.0881    1.0000 </r>
       <r>   -1.0782    1.0000 </r>
       <r>   -0.9565    1.0000 </r>
       <r>   -0.9559    1.0000 </r>
       <r>   -0.9469    1.0000 </r>
       <r>   -0.9469    1.0000 </r>
       <r>   -0.9468    1.0000 </r>
       <r>   -0.9467    1.0000 </r>
       <r>   -0.9397    1.0000 </r>
       <r>   -0.9383    1.0000 </r>
       <r>   -0.9382    1.0000 </r>
       <r>   -0.9337    1.0000 </r>
       <r>   -0.9335    1.0000 </r>
       <r>   -0.9324    1.0000 </r>
       <r>   -0.9315    1.0000 </r>
       <r>   -0.9305    1.0000 </r>
       <r>   -0.9305    1.0000 </r>
       <r>   -0.9240    1.0000 </r>
       <r>   -0.7735    1.0000 </r>
       <r>   -0.7735    1.0000 </r>
       <r>   -0.7629    1.0000 </r>
       <r>   -0.7629    1.0000 </r>
       <r>    5.0169    0.0000 </r>
       <r>    5.0277    0.0000 </r>
       <r>    6.7078    0.0000 </r>
       <r>    6.7126    0.0000 </r>
       <r>    6.7126    0.0000 </r>
       <r>    6.7155    0.0000 </r>
       <r>    6.7212    0.0000 </r>
       <r>    6.7235    0.0000 </r>
       <r>    6.7237    0.0000 </r>
       <r>    6.7278    0.0000 </r>
       <r>    6.8356    0.0000 </r>
       <r>    6.8359    0.0000 </r>
       <r>    6.8387    0.0000 </r>
       <r>    6.8413    0.0000 </r>
       <r>    6.8451    0.0000 </r>
       <r>    6.8474    0.0000 </r>
       <r>    6.8510    0.0000 </r>
       <r>    6.8512    0.0000 </r>
       <r>    6.9669    0.0000 </r>
       <r>    6.9757    0.0000 </r>
       <r>    7.3527    0.0000 </r>
       <r>    7.3623    0.0000 </r>
       <r>    7.3628    0.0000 </r>
       <r>    7.3723    0.0000 </r>
       <r>    7.4761    0.0000 </r>
       <r>    7.4844    0.0000 </r>
       <r>    7.7079    0.0000 </r>
       <r>    7.7080    0.0000 </r>
       <r>    7.7212    0.0000 </r>
       <r>    7.7212    0.0000 </r>
       <r>    8.2538    0.0000 </r>
       <r>    8.2614    0.0000 </r>
       <r>    8.2618    0.0000 </r>
       <r>    8.2640    0.0000 </r>
       <r>    8.2678    0.0000 </r>
       <r>    8.2700    0.0000 </r>
       <r>    8.2703    0.0000 </r>
       <r>    8.2769    0.0000 </r>
       <r>    8.5259    0.0000 </r>
       <r>    8.5270    0.0000 </r>
       <r>    8.5300    0.0000 </r>
       <r>    8.5342    0.0000 </r>
       <r>    8.5351    0.0000 </r>
       <r>    8.5358    0.0000 </r>
       <r>    8.5363    0.0000 </r>
       <r>    8.5369    0.0000 </r>
       <r>    8.5402    0.0000 </r>
       <r>    8.5404    0.0000 </r>
       <r>    8.5412    0.0000 </r>
       <r>    8.5416    0.0000 </r>
       <r>    8.5432    0.0000 </r>
       <r>    8.5475    0.0000 </r>
       <r>    8.5498    0.0000 </r>
       <r>    8.5511    0.0000 </r>
       <r>    8.9429    0.0000 </r>
       <r>    8.9445    0.0000 </r>
       <r>    8.9471    0.0000 </r>
       <r>    8.9485    0.0000 </r>
       <r>    8.9533    0.0000 </r>
       <r>    8.9548    0.0000 </r>
       <r>    8.9579    0.0000 </r>
       <r>    8.9593    0.0000 </r>
       <r>    9.4858    0.0000 </r>
       <r>    9.5019    0.0000 </r>
      </set>
      <set comment="kpoint 3">
       <r>  -21.3134    1.0000 </r>
       <r>  -21.3127    1.0000 </r>
       <r>  -21.3125    1.0000 </r>
       <r>  -21.3010    1.0000 </r>
       <r>  -21.3009    1.0000 </r>
       <r>  -21.3001    1.0000 </r>
       <r>  -21.3001    1.0000 </r>
       <r>  -21.2994    1.0000 </r>
       <r>  -21.2994    1.0000 </r>
       <r>  -21.2982    1.0000 </r>
       <r>  -21.2979    1.0000 </r>
       <r>  -21.2945    1.0000 </r>
       <r>  -21.2933    1.0000 </r>
       <r>  -21.2928    1.0000 </r>
       <r>  -21.2927    1.0000 </r>
       <r>  -21.2920    1.0000 </r>
       <r>  -21.2914    1.0000 </r>
       <r>  -21.2908    1.0000 </r>
       <r>  -21.2908    1.0000 </r>
       <r>  -21.2903    1.0000 </r>
       <r>  -21.2900    1.0000 </r>
       <r>  -21.2893    1.0000 </r>
       <r>  -21.2890    1.0000 </r>
       <r>  -21.2885    1.0000 </r>
       <r>  -21.2882    1.0000 </r>
       <r>  -21.2879    1.0000 </r>
       <r>  -21.2878    1.0000 </r>
       <r>  -21.2874    1.0000 </r>
       <r>  -21.2872    1.0000 </r>
       <r>  -21.2866    1.0000 </r>
       <r>  -21.2855    1.0000 </r>
       <r>  -21.2854    1.0000 </r>
       <r>  -21.2848    1.0000 </r>
       <r>  -21.2844    1.0000 </r>
       <r>  -21.2841    1.0000 </r>
       <r>  -21.2841    1.0000 </r>
       <r>  -21.2840    1.0000 </r>
       <r>  -21.2840    1.0000 </r>
       <r>  -21.2834    1.0000 </r>
       <r>  -21.2831    1.0000 </r>
       <r>  -21.2830    1.0000 </r>
       <r>  -21.2828    1.0000 </r>
       <r>  -21.2823    1.0000 </r>
       <r>  -21.2816    1.0000 </r>
       <r>  -21.2812    1.0000 </r>
       <r>  -21.2805    1.0000 </r>
       <r>  -21.2805    1.0000 </r>
       <r>  -21.2803    1.0000 </r>
       <r>  -21.2793    1.0000 </r>
       <r>  -21.2789    1.0000 </r>
       <r>  -21.2788    1.0000 </r>
       <r>  -21.2786    1.0000 </r>
       <r>  -21.2786    1.0000 </r>
       <r>  -21.2774    1.0000 </r>
       <r>  -21.2773    1.0000 </r>
       <r>  -21.2766    1.0000 </r>
       <r>  -21.2765    1.0000 </r>
       <r>  -21.2763    1.0000 </r>
       <r>  -21.2762    1.0000 </r>
       <r>  -21.2758    1.0000 </r>
       <r>  -21.2758    1.0000 </r>
       <r>  -21.2755    1.0000 </r>
       <r>  -21.2751    1.0000 </r>
       <r>  -21.2748    1.0000 </r>
       <r>  -21.2747    1.0000 </r>
       <r>  -21.2745    1.0000 </r>
       <r>  -21.2744    1.0000 </r>
       <r>  -21.2744    1.0000 </r>
       <r>  -21.2743    1.0000 </r>
       <r>  -21.2743    1.0000 </r>
       <r>  -21.2742    1.0000 </r>
       <r>  -21.2741    1.0000 </r>
       <r>  -21.2739    1.0000 </r>
       <r>  -21.2734    1.0000 </r>
       <r>  -21.2730    1.0000 </r>
       <r>  -21.2730    1.0000 </r>
       <r>  -21.2728    1.0000 </r>
       <r>  -21.2720    1.0000 </r>
       <r>  -21.2715    1.0000 </r>
       <r>  -21.2714    1.0000 </r>
       <r>  -21.2713    1.0000 </r>
       <r>  -21.2710    1.0000 </r>
       <r>  -21.2708    1.0000 </r>
       <r>  -21.2700    1.0000 </r>
       <r>  -21.2687    1.0000 </r>
       <r>  -21.2686    1.0000 </r>
       <r>  -21.2684    1.0000 </r>
       <r>  -21.2680    1.0000 </r>
       <r>  -21.2680    1.0000 </r>
       <r>  -21.2678    1.0000 </r>
       <r>  -21.2674    1.0000 </r>
       <r>  -21.2661    1.0000 </r>
       <r>  -21.2656    1.0000 </r>
       <r>  -21.2506    1.0000 </r>
       <r>  -21.2505    1.0000 </r>
       <r>  -21.2501    1.0000 </r>
       <r>  -13.2918    1.0000 </r>
       <r>  -13.2912    1.0000 </r>
       <r>  -13.1051    1.0000 </r>
       <r>  -13.0985    1.0000 </r>
       <r>  -13.0971    1.0000 </r>
       <r>  -13.0969    1.0000 </r>
       <r>  -13.0968    1.0000 </r>
       <r>  -13.0967    1.0000 </r>
       <r>  -13.0955    1.0000 </r>
       <r>  -13.0920    1.0000 </r>
       <r>  -13.0070    1.0000 </r>
       <r>  -13.0016    1.0000 </r>
       <r>  -13.0012    1.0000 </r>
       <r>  -13.0006    1.0000 </r>
       <r>  -13.0006    1.0000 </r>
       <r>  -13.0006    1.0000 </r>
       <r>  -13.0006    1.0000 </r>
       <r>  -12.9999    1.0000 </r>
       <r>  -12.9953    1.0000 </r>
       <r>  -12.9929    1.0000 </r>
       <r>  -12.9504    1.0000 </r>
       <r>  -12.9455    1.0000 </r>
       <r>  -12.9438    1.0000 </r>
       <r>  -12.9437    1.0000 </r>
       <r>  -12.9437    1.0000 </r>
       <r>  -12.9429    1.0000 </r>
       <r>  -12.9424    1.0000 </r>
       <r>  -12.9394    1.0000 </r>
       <r>  -12.9311    1.0000 </r>
       <r>  -12.9307    1.0000 </r>
       <r>  -12.9300    1.0000 </r>
       <r>  -12.9215    1.0000 </r>
       <r>   -2.5053    1.0000 </r>
       <r>   -2.5048    1.0000 </r>
       <r>   -2.5048    1.0000 </r>
       <r>   -2.5047    1.0000 </r>
       <r>   -2.5042    1.0000 </r>
       <r>   -2.5042    1.0000 </r>
       <r>   -2.5038    1.0000 </r>
       <r>   -2.5037    1.0000 </r>
       <r>   -2.2879    1.0000 </r>
       <r>   -2.2877    1.0000 </r>
       <r>   -2.2877    1.0000 </r>
       <r>   -2.2876    1.0000 </r>
       <r>   -2.2745    1.0000 </r>
       <r>   -2.2742    1.0000 </r>
       <r>   -2.1408    1.0000 </r>
       <r>   -2.1365    1.0000 </r>
       <r>   -2.1365    1.0000 </r>
       <r>   -2.1364    1.0000 </r>
       <r>   -2.1364    1.0000 </r>
       <r>   -2.1363    1.0000 </r>
       <r>   -2.1362    1.0000 </r>
       <r>   -2.1319    1.0000 </r>
       <r>   -1.9868    1.0000 </r>
       <r>   -1.9868    1.0000 </r>
       <r>   -1.9857    1.0000 </r>
       <r>   -1.9856    1.0000 </r>
       <r>   -1.9854    1.0000 </r>
       <r>   -1.9853    1.0000 </r>
       <r>   -1.9840    1.0000 </r>
       <r>   -1.9840    1.0000 </r>
       <r>   -1.8122    1.0000 </r>
       <r>   -1.8089    1.0000 </r>
       <r>   -1.8088    1.0000 </r>
       <r>   -1.8088    1.0000 </r>
       <r>   -1.8087    1.0000 </r>
       <r>   -1.8086    1.0000 </r>
       <r>   -1.8086    1.0000 </r>
       <r>   -1.8053    1.0000 </r>
       <r>   -1.4979    1.0000 </r>
       <r>   -1.4979    1.0000 </r>
       <r>   -1.4978    1.0000 </r>
       <r>   -1.4977    1.0000 </r>
       <r>   -1.3807    1.0000 </r>
       <r>   -1.3805    1.0000 </r>
       <r>   -1.3804    1.0000 </r>
       <r>   -1.3804    1.0000 </r>
       <r>   -1.2158    1.0000 </r>
       <r>   -1.2129    1.0000 </r>
       <r>   -1.2128    1.0000 </r>
       <r>   -1.2123    1.0000 </r>
       <r>   -1.1947    1.0000 </r>
       <r>   -1.1939    1.0000 </r>
       <r>   -1.1921    1.0000 </r>
       <r>   -1.1913    1.0000 </r>
       <r>   -1.1909    1.0000 </r>
       <r>   -1.1901    1.0000 </r>
       <r>   -1.1898    1.0000 </r>
       <r>   -1.1888    1.0000 </r>
       <r>   -1.1771    1.0000 </r>
       <r>   -1.1760    1.0000 </r>
       <r>   -1.1744    1.0000 </r>
       <r>   -1.1742    1.0000 </r>
       <r>   -1.1735    1.0000 </r>
       <r>   -1.1726    1.0000 </r>
       <r>   -1.1719    1.0000 </r>
       <r>   -1.1715    1.0000 </r>
       <r>   -1.1616    1.0000 </r>
       <r>   -1.1599    1.0000 </r>
       <r>   -1.1596    1.0000 </r>
       <r>   -1.1596    1.0000 </r>
       <r>   -1.1595    1.0000 </r>
       <r>   -1.1587    1.0000 </r>
       <r>   -1.1576    1.0000 </r>
       <r>   -1.1562    1.0000 </r>
       <r>   -1.0834    1.0000 </r>
       <r>   -1.0833    1.0000 </r>
       <r>   -0.9486    1.0000 </r>
       <r>   -0.9472    1.0000 </r>
       <r>   -0.9469    1.0000 </r>
       <r>   -0.9469    1.0000 </r>
       <r>   -0.9468    1.0000 </r>
       <r>   -0.9468    1.0000 </r>
       <r>   -0.9460    1.0000 </r>
       <r>   -0.9456    1.0000 </r>
       <r>   -0.9370    1.0000 </r>
       <r>   -0.9339    1.0000 </r>
       <r>   -0.9325    1.0000 </r>
       <r>   -0.9321    1.0000 </r>
       <r>   -0.9320    1.0000 </r>
       <r>   -0.9317    1.0000 </r>
       <r>   -0.9301    1.0000 </r>
       <r>   -0.9267    1.0000 </r>
       <r>   -0.7684    1.0000 </r>
       <r>   -0.7683    1.0000 </r>
       <r>   -0.7678    1.0000 </r>
       <r>   -0.7677    1.0000 </r>
       <r>    5.0222    0.0000 </r>
       <r>    5.0224    0.0000 </r>
       <r>    6.7081    0.0000 </r>
       <r>    6.7161    0.0000 </r>
       <r>    6.7172    0.0000 </r>
       <r>    6.7183    0.0000 </r>
       <r>    6.7184    0.0000 </r>
       <r>    6.7184    0.0000 </r>
       <r>    6.7203    0.0000 </r>
       <r>    6.7269    0.0000 </r>
       <r>    6.8389    0.0000 </r>
       <r>    6.8399    0.0000 </r>
       <r>    6.8415    0.0000 </r>
       <r>    6.8429    0.0000 </r>
       <r>    6.8435    0.0000 </r>
       <r>    6.8451    0.0000 </r>
       <r>    6.8476    0.0000 </r>
       <r>    6.8479    0.0000 </r>
       <r>    6.9711    0.0000 </r>
       <r>    6.9712    0.0000 </r>
       <r>    7.3624    0.0000 </r>
       <r>    7.3625    0.0000 </r>
       <r>    7.3626    0.0000 </r>
       <r>    7.3628    0.0000 </r>
       <r>    7.4802    0.0000 </r>
       <r>    7.4802    0.0000 </r>
       <r>    7.7144    0.0000 </r>
       <r>    7.7146    0.0000 </r>
       <r>    7.7146    0.0000 </r>
       <r>    7.7146    0.0000 </r>
       <r>    8.2574    0.0000 </r>
       <r>    8.2641    0.0000 </r>
       <r>    8.2658    0.0000 </r>
       <r>    8.2659    0.0000 </r>
       <r>    8.2660    0.0000 </r>
       <r>    8.2660    0.0000 </r>
       <r>    8.2676    0.0000 </r>
       <r>    8.2743    0.0000 </r>
       <r>    8.5279    0.0000 </r>
       <r>    8.5311    0.0000 </r>
       <r>    8.5350    0.0000 </r>
       <r>    8.5365    0.0000 </r>
       <r>    8.5370    0.0000 </r>
       <r>    8.5376    0.0000 </r>
       <r>    8.5382    0.0000 </r>
       <r>    8.5383    0.0000 </r>
       <r>    8.5387    0.0000 </r>
       <r>    8.5387    0.0000 </r>
       <r>    8.5392    0.0000 </r>
       <r>    8.5401    0.0000 </r>
       <r>    8.5408    0.0000 </r>
       <r>    8.5419    0.0000 </r>
       <r>    8.5462    0.0000 </r>
       <r>    8.5487    0.0000 </r>
       <r>    8.9385    0.0000 </r>
       <r>    8.9502    0.0000 </r>
       <r>    8.9508    0.0000 </r>
       <r>    8.9509    0.0000 </r>
       <r>    8.9509    0.0000 </r>
       <r>    8.9509    0.0000 </r>
       <r>    8.9516    0.0000 </r>
       <r>    8.9633    0.0000 </r>
       <r>    9.4889    0.0000 </r>
       <r>    9.5050    0.0000 </r>
      </set>
      <set comment="kpoint 4">
       <r>  -21.3132    1.0000 </r>
       <r>  -21.3129    1.0000 </r>
       <r>  -21.3125    1.0000 </r>
       <r>  -21.3020    1.0000 </r>
       <r>  -21.3015    1.0000 </r>
       <r>  -21.3006    1.0000 </r>
       <r>  -21.3001    1.0000 </r>
       <r>  -21.2994    1.0000 </r>
       <r>  -21.2981    1.0000 </r>
       <r>  -21.2963    1.0000 </r>
       <r>  -21.2963    1.0000 </r>
       <r>  -21.2954    1.0000 </r>
       <r>  -21.2944    1.0000 </r>
       <r>  -21.2933    1.0000 </r>
       <r>  -21.2927    1.0000 </r>
       <r>  -21.2921    1.0000 </r>
       <r>  -21.2917    1.0000 </r>
       <r>  -21.2908    1.0000 </r>
       <r>  -21.2907    1.0000 </r>
       <r>  -21.2904    1.0000 </r>
       <r>  -21.2899    1.0000 </r>
       <r>  -21.2895    1.0000 </r>
       <r>  -21.2893    1.0000 </r>
       <r>  -21.2887    1.0000 </r>
       <r>  -21.2881    1.0000 </r>
       <r>  -21.2881    1.0000 </r>
       <r>  -21.2877    1.0000 </r>
       <r>  -21.2871    1.0000 </r>
       <r>  -21.2867    1.0000 </r>
       <r>  -21.2861    1.0000 </r>
       <r>  -21.2858    1.0000 </r>
       <r>  -21.2849    1.0000 </r>
[...]
      </set>
     </set>
    </set>
   </array>
  </eigenvalues>
  <separator name="orbital magnetization" >
   <v name="MAGDIPOLOUT">      0.00000000      0.00000000      0.00000000</v>
  </separator>
  <dos>
   <i name="efermi">     -0.56506803 </i>
   <total>
    <array>
     <dimension dim="1">gridpoints</dimension>
     <dimension dim="2">spin</dimension>
     <field>energy</field>
     <field>total</field>
     <field>integrated</field>
     <set>
      <set comment="spin 1">
       <r>   -22.8549     0.0000     0.0000 </r>
       <r>   -22.7419     0.0000     0.0000 </r>
       <r>   -22.6289     0.0000     0.0000 </r>
       <r>   -22.5159     0.0000     0.0000 </r>
       <r>   -22.4029     0.0000     0.0000 </r>
       <r>   -22.2899     0.0000     0.0000 </r>
       <r>   -22.1769     0.0000     0.0000 </r>
       <r>   -22.0639     0.0000     0.0000 </r>
       <r>   -21.9509     0.0000     0.0000 </r>
       <r>   -21.8378     0.0000     0.0000 </r>
       <r>   -21.7248     0.0000     0.0000 </r>
       <r>   -21.6118     0.0000     0.0000 </r>
       <r>   -21.4988     0.0000     0.0000 </r>
       <r>   -21.3858     0.0000     0.0000 </r>
       <r>   -21.2728  1143.4352   129.2114 </r>
       <r>   -21.1598   555.6374   192.0000 </r>
       <r>   -21.0468     0.0000   192.0000 </r>
       <r>   -20.9338     0.0000   192.0000 </r>
       <r>   -20.8208     0.0000   192.0000 </r>
       <r>   -20.7078     0.0000   192.0000 </r>
       <r>   -20.5948     0.0000   192.0000 </r>
       <r>   -20.4818     0.0000   192.0000 </r>
       <r>   -20.3688     0.0000   192.0000 </r>
       <r>   -20.2558     0.0000   192.0000 </r>
       <r>   -20.1428     0.0000   192.0000 </r>
       <r>   -20.0298     0.0000   192.0000 </r>
       <r>   -19.9168     0.0000   192.0000 </r>
       <r>   -19.8038     0.0000   192.0000 </r>
       <r>   -19.6908     0.0000   192.0000 </r>
       <r>   -19.5778     0.0000   192.0000 </r>
       <r>   -19.4648     0.0000   192.0000 </r>
       <r>   -19.3518     0.0000   192.0000 </r>
       <r>   -19.2388     0.0000   192.0000 </r>
       <r>   -19.1258     0.0000   192.0000 </r>
       <r>   -19.0128     0.0000   192.0000 </r>
       <r>   -18.8998     0.0000   192.0000 </r>
       <r>   -18.7868     0.0000   192.0000 </r>
       <r>   -18.6738     0.0000   192.0000 </r>
       <r>   -18.5608     0.0000   192.0000 </r>
       <r>   -18.4478     0.0000   192.0000 </r>
       <r>   -18.3348     0.0000   192.0000 </r>
       <r>   -18.2218     0.0000   192.0000 </r>
       <r>   -18.1088     0.0000   192.0000 </r>
       <r>   -17.9958     0.0000   192.0000 </r>
       <r>   -17.8828     0.0000   192.0000 </r>
       <r>   -17.7697     0.0000   192.0000 </r>
       <r>   -17.6567     0.0000   192.0000 </r>
       <r>   -17.5437     0.0000   192.0000 </r>
       <r>   -17.4307     0.0000   192.0000 </r>
       <r>   -17.3177     0.0000   192.0000 </r>
       <r>   -17.2047     0.0000   192.0000 </r>
       <r>   -17.0917     0.0000   192.0000 </r>
       <r>   -16.9787     0.0000   192.0000 </r>
       <r>   -16.8657     0.0000   192.0000 </r>
       <r>   -16.7527     0.0000   192.0000 </r>
       <r>   -16.6397     0.0000   192.0000 </r>
       <r>   -16.5267     0.0000   192.0000 </r>
       <r>   -16.4137     0.0000   192.0000 </r>
       <r>   -16.3007     0.0000   192.0000 </r>
       <r>   -16.1877     0.0000   192.0000 </r>
       <r>   -16.0747     0.0000   192.0000 </r>
       <r>   -15.9617     0.0000   192.0000 </r>
       <r>   -15.8487     0.0000   192.0000 </r>
       <r>   -15.7357     0.0000   192.0000 </r>
       <r>   -15.6227     0.0000   192.0000 </r>
       <r>   -15.5097     0.0000   192.0000 </r>
       <r>   -15.3967     0.0000   192.0000 </r>
       <r>   -15.2837     0.0000   192.0000 </r>
       <r>   -15.1707     0.0000   192.0000 </r>
       <r>   -15.0577     0.0000   192.0000 </r>
       <r>   -14.9447     0.0000   192.0000 </r>
       <r>   -14.8317     0.0000   192.0000 </r>
       <r>   -14.7187     0.0000   192.0000 </r>
       <r>   -14.6057     0.0000   192.0000 </r>
       <r>   -14.4927     0.0000   192.0000 </r>
       <r>   -14.3797     0.0000   192.0000 </r>
       <r>   -14.2667     0.0000   192.0000 </r>
       <r>   -14.1537     0.0000   192.0000 </r>
       <r>   -14.0407     0.0000   192.0000 </r>
       <r>   -13.9277     0.0000   192.0000 </r>
       <r>   -13.8146     0.0000   192.0000 </r>
       <r>   -13.7016     0.0000   192.0000 </r>
       <r>   -13.5886     0.0000   192.0000 </r>
       <r>   -13.4756     0.0000   192.0000 </r>
       <r>   -13.3626     0.8332   192.0942 </r>
       <r>   -13.2496    17.6460   194.0882 </r>
       <r>   -13.1366    48.4747   199.5660 </r>
       <r>   -13.0236   121.8141   213.3313 </r>
       <r>   -12.9106   367.4046   254.8491 </r>
       <r>   -12.7976    10.1765   256.0000 </r>
       <r>   -12.6846     0.0000   256.0000 </r>
       <r>   -12.5716     0.0000   256.0000 </r>
       <r>   -12.4586     0.0000   256.0000 </r>
       <r>   -12.3456     0.0000   256.0000 </r>
       <r>   -12.2326     0.0000   256.0000 </r>
       <r>   -12.1196     0.0000   256.0000 </r>
       <r>   -12.0066     0.0000   256.0000 </r>
       <r>   -11.8936     0.0000   256.0000 </r>
       <r>   -11.7806     0.0000   256.0000 </r>
       <r>   -11.6676     0.0000   256.0000 </r>
       <r>   -11.5546     0.0000   256.0000 </r>
       <r>   -11.4416     0.0000   256.0000 </r>
       <r>   -11.3286     0.0000   256.0000 </r>
       <r>   -11.2156     0.0000   256.0000 </r>
       <r>   -11.1026     0.0000   256.0000 </r>
       <r>   -10.9896     0.0000   256.0000 </r>
       <r>   -10.8766     0.0000   256.0000 </r>
       <r>   -10.7636     0.0000   256.0000 </r>
       <r>   -10.6506     0.0000   256.0000 </r>
       <r>   -10.5376     0.0000   256.0000 </r>
       <r>   -10.4246     0.0000   256.0000 </r>
       <r>   -10.3116     0.0000   256.0000 </r>
       <r>   -10.1986     0.0000   256.0000 </r>
       <r>   -10.0856     0.0000   256.0000 </r>
       <r>    -9.9726     0.0000   256.0000 </r>
       <r>    -9.8596     0.0000   256.0000 </r>
       <r>    -9.7465     0.0000   256.0000 </r>
       <r>    -9.6335     0.0000   256.0000 </r>
       <r>    -9.5205     0.0000   256.0000 </r>
       <r>    -9.4075     0.0000   256.0000 </r>
       <r>    -9.2945     0.0000   256.0000 </r>
       <r>    -9.1815     0.0000   256.0000 </r>
       <r>    -9.0685     0.0000   256.0000 </r>
       <r>    -8.9555     0.0000   256.0000 </r>
       <r>    -8.8425     0.0000   256.0000 </r>
       <r>    -8.7295     0.0000   256.0000 </r>
       <r>    -8.6165     0.0000   256.0000 </r>
       <r>    -8.5035     0.0000   256.0000 </r>
       <r>    -8.3905     0.0000   256.0000 </r>
       <r>    -8.2775     0.0000   256.0000 </r>
       <r>    -8.1645     0.0000   256.0000 </r>
       <r>    -8.0515     0.0000   256.0000 </r>
       <r>    -7.9385     0.0000   256.0000 </r>
       <r>    -7.8255     0.0000   256.0000 </r>
       <r>    -7.7125     0.0000   256.0000 </r>
       <r>    -7.5995     0.0000   256.0000 </r>
       <r>    -7.4865     0.0000   256.0000 </r>
       <r>    -7.3735     0.0000   256.0000 </r>
       <r>    -7.2605     0.0000   256.0000 </r>
       <r>    -7.1475     0.0000   256.0000 </r>
       <r>    -7.0345     0.0000   256.0000 </r>
       <r>    -6.9215     0.0000   256.0000 </r>
       <r>    -6.8085     0.0000   256.0000 </r>
       <r>    -6.6955     0.0000   256.0000 </r>
       <r>    -6.5825     0.0000   256.0000 </r>
       <r>    -6.4695     0.0000   256.0000 </r>
       <r>    -6.3565     0.0000   256.0000 </r>
       <r>    -6.2435     0.0000   256.0000 </r>
       <r>    -6.1305     0.0000   256.0000 </r>
       <r>    -6.0175     0.0000   256.0000 </r>
       <r>    -5.9045     0.0000   256.0000 </r>
       <r>    -5.7914     0.0000   256.0000 </r>
       <r>    -5.6784     0.0000   256.0000 </r>
       <r>    -5.5654     0.0000   256.0000 </r>
       <r>    -5.4524     0.0000   256.0000 </r>
       <r>    -5.3394     0.0000   256.0000 </r>
       <r>    -5.2264     0.0000   256.0000 </r>
       <r>    -5.1134     0.0000   256.0000 </r>
       <r>    -5.0004     0.0000   256.0000 </r>
       <r>    -4.8874     0.0000   256.0000 </r>
       <r>    -4.7744     0.0000   256.0000 </r>
       <r>    -4.6614     0.0000   256.0000 </r>
       <r>    -4.5484     0.0000   256.0000 </r>
       <r>    -4.4354     0.0000   256.0000 </r>
       <r>    -4.3224     0.0000   256.0000 </r>
       <r>    -4.2094     0.0000   256.0000 </r>
       <r>    -4.0964     0.0000   256.0000 </r>
       <r>    -3.9834     0.0000   256.0000 </r>
       <r>    -3.8704     0.0000   256.0000 </r>
       <r>    -3.7574     0.0000   256.0000 </r>
       <r>    -3.6444     0.0000   256.0000 </r>
       <r>    -3.5314     0.0000   256.0000 </r>
       <r>    -3.4184     0.0000   256.0000 </r>
       <r>    -3.3054     0.0000   256.0000 </r>
       <r>    -3.1924     0.0000   256.0000 </r>
       <r>    -3.0794     0.0000   256.0000 </r>
       <r>    -2.9664     0.0000   256.0000 </r>
       <r>    -2.8534     0.0000   256.0000 </r>
       <r>    -2.7404     0.0192   256.0022 </r>
       <r>    -2.6274     8.8301   257.0000 </r>
       <r>    -2.5144    12.9950   258.4685 </r>
       <r>    -2.4014    88.5194   268.4714 </r>
       <r>    -2.2884    79.4219   277.4463 </r>
       <r>    -2.1754   159.6761   295.4903 </r>
       <r>    -2.0624    77.5171   304.2500 </r>
       <r>    -1.9494    53.9195   310.3431 </r>
       <r>    -1.8363    53.0296   316.3356 </r>
       <r>    -1.7233    83.3116   325.7500 </r>
       <r>    -1.6103     0.0000   325.7500 </r>
       <r>    -1.4973    43.3441   330.6480 </r>
       <r>    -1.3843   214.0311   354.8341 </r>
       <r>    -1.2713    34.0545   358.6824 </r>
       <r>    -1.1583   233.0113   385.0133 </r>
       <r>    -1.0453   154.0360   402.4200 </r>
       <r>    -0.9323   238.6724   429.3910 </r>
       <r>    -0.8193    78.8740   438.3040 </r>
       <r>    -0.7063    78.8711   447.2166 </r>
       <r>    -0.5933     6.9319   448.0000 </r>
       <r>    -0.4803     0.0000   448.0000 </r>
       <r>    -0.3673     0.0000   448.0000 </r>
       <r>    -0.2543     0.0000   448.0000 </r>
       <r>    -0.1413     0.0000   448.0000 </r>
       <r>    -0.0283     0.0000   448.0000 </r>
       <r>     0.0847     0.0000   448.0000 </r>
       <r>     0.1977     0.0000   448.0000 </r>
       <r>     0.3107     0.0000   448.0000 </r>
       <r>     0.4237     0.0000   448.0000 </r>
       <r>     0.5367     0.0000   448.0000 </r>
       <r>     0.6497     0.0000   448.0000 </r>
       <r>     0.7627     0.0000   448.0000 </r>
       <r>     0.8757     0.0000   448.0000 </r>
       <r>     0.9887     0.0000   448.0000 </r>
       <r>     1.1017     0.0000   448.0000 </r>
       <r>     1.2147     0.0000   448.0000 </r>
       <r>     1.3277     0.0000   448.0000 </r>
       <r>     1.4407     0.0000   448.0000 </r>
       <r>     1.5537     0.0000   448.0000 </r>
       <r>     1.6667     0.0000   448.0000 </r>
       <r>     1.7797     0.0000   448.0000 </r>
       <r>     1.8927     0.0000   448.0000 </r>
       <r>     2.0057     0.0000   448.0000 </r>
       <r>     2.1187     0.0000   448.0000 </r>
       <r>     2.2318     0.0000   448.0000 </r>
       <r>     2.3448     0.0000   448.0000 </r>
       <r>     2.4578     0.0000   448.0000 </r>
       <r>     2.5708     0.0000   448.0000 </r>
       <r>     2.6838     0.0000   448.0000 </r>
       <r>     2.7968     0.0000   448.0000 </r>
       <r>     2.9098     0.0000   448.0000 </r>
       <r>     3.0228     0.0000   448.0000 </r>
       <r>     3.1358     0.0000   448.0000 </r>
       <r>     3.2488     0.0000   448.0000 </r>
       <r>     3.3618     0.0000   448.0000 </r>
       <r>     3.4748     0.0000   448.0000 </r>
       <r>     3.5878     0.0000   448.0000 </r>
       <r>     3.7008     0.0000   448.0000 </r>
       <r>     3.8138     0.0000   448.0000 </r>
       <r>     3.9268     0.0000   448.0000 </r>
       <r>     4.0398     0.0000   448.0000 </r>
       <r>     4.1528     0.0000   448.0000 </r>
       <r>     4.2658     0.0000   448.0000 </r>
       <r>     4.3788     2.2053   448.2492 </r>
       <r>     4.4918     0.0071   448.2500 </r>
       <r>     4.6048     0.0000   448.2500 </r>
       <r>     4.7178     0.0000   448.2500 </r>
       <r>     4.8308     0.0000   448.2500 </r>
       <r>     4.9438     0.0000   448.2500 </r>
       <r>     5.0568    13.1604   449.7372 </r>
       <r>     5.1698     0.1136   449.7500 </r>
       <r>     5.2828     0.0000   449.7500 </r>
       <r>     5.3958     0.0000   449.7500 </r>
       <r>     5.5088     0.5570   449.8129 </r>
       <r>     5.6218    25.9910   452.7500 </r>
       <r>     5.7348     0.0000   452.7500 </r>
       <r>     5.8478    15.1105   454.4575 </r>
       <r>     5.9608     2.5882   454.7500 </r>
       <r>     6.0738     0.0000   454.7500 </r>
       <r>     6.1869     0.0000   454.7500 </r>
       <r>     6.2999     0.0000   454.7500 </r>
       <r>     6.4129    13.3633   456.2601 </r>
       <r>     6.5259     8.7599   457.2500 </r>
       <r>     6.6389    26.3088   460.2230 </r>
       <r>     6.7519    79.1954   469.1723 </r>
       <r>     6.8649    56.5518   475.5628 </r>
       <r>     6.9779    12.8903   477.0194 </r>
       <r>     7.0909     4.2527   477.5000 </r>
       <r>     7.2039     2.7834   477.8145 </r>
       <r>     7.3169     3.8798   478.2530 </r>
       <r>     7.4299    78.7742   487.1547 </r>
       <r>     7.5429   161.5793   505.4136 </r>
       <r>     7.6559    11.8249   506.7501 </r>
       <r>     7.7689    26.5444   509.7497 </r>
       <r>     7.8819     0.0175   509.7520 </r>
       <r>     7.9949    53.0764   515.7498 </r>
       <r>     8.1079     0.0002   515.7500 </r>
       <r>     8.2209    13.3515   517.2588 </r>
       <r>     8.3339    92.6621   527.7300 </r>
       <r>     8.4469     0.1762   527.7500 </r>
       <r>     8.5599   127.3547   542.1414 </r>
       <r>     8.6729    31.9334   545.7500 </r>
       <r>     8.7859     0.0000   545.7500 </r>
       <r>     8.8989    64.5458   553.0439 </r>
       <r>     9.0119   130.3134   567.7696 </r>
       <r>     9.1249    15.3104   569.5000 </r>
       <r>     9.2379    11.3312   570.7805 </r>
       <r>     9.3509    32.9155   574.5000 </r>
       <r>     9.4639     0.4488   574.5507 </r>
       <r>     9.5769    12.8252   576.0000 </r>
       <r>     9.6899     0.0000   576.0000 </r>
       <r>     9.8029     0.0000   576.0000 </r>
       <r>     9.9159     0.0000   576.0000 </r>
       <r>    10.0289     0.0000   576.0000 </r>
       <r>    10.1419     0.0000   576.0000 </r>
       <r>    10.2550     0.0000   576.0000 </r>
       <r>    10.3680     0.0000   576.0000 </r>
       <r>    10.4810     0.0000   576.0000 </r>
       <r>    10.5940     0.0000   576.0000 </r>
       <r>    10.7070     0.0000   576.0000 </r>
       <r>    10.8200     0.0000   576.0000 </r>
       <r>    10.9330     0.0000   576.0000 </r>
       <r>    11.0460     0.0000   576.0000 </r>
      </set>
     </set>
    </array>
   </total>
  </dos>
 </calculation>
 <structure name="finalpos" >
  <crystal>
   <varray name="basis" >
    <v>      11.20400236       0.00000000       0.00000000 </v>
    <v>       0.00000000      11.20400236       0.00000000 </v>
    <v>       0.00000000       0.00000000      11.20400236 </v>
   </varray>
   <i name="volume">   1406.43470641 </i>
   <varray name="rec_basis" >
    <v>       0.08925382       0.00000000       0.00000000 </v>
    <v>       0.00000000       0.08925382       0.00000000 </v>
    <v>       0.00000000       0.00000000       0.08925382 </v>
   </varray>
  </crystal>
  <varray name="positions" >
   <v>       0.00267761       0.00000000       0.00000000 </v>
   <v>       0.25000000       0.25000000       0.00000000 </v>
   <v>       0.25000000       0.00000000       0.25000000 </v>
   <v>       0.00000000       0.25000000       0.25000000 </v>
   <v>       0.00000000       0.00000000       0.50000000 </v>
   <v>       0.25000000       0.25000000       0.50000000 </v>
   <v>       0.25000000       0.00000000       0.75000000 </v>
   <v>       0.00000000       0.25000000       0.75000000 </v>
   <v>       0.00000000       0.50000000       0.00000000 </v>
   <v>       0.25000000       0.75000000       0.00000000 </v>
   <v>       0.25000000       0.50000000       0.25000000 </v>
   <v>       0.00000000       0.75000000       0.25000000 </v>
   <v>       0.00000000       0.50000000       0.50000000 </v>
   <v>       0.25000000       0.75000000       0.50000000 </v>
   <v>       0.25000000       0.50000000       0.75000000 </v>
   <v>       0.00000000       0.75000000       0.75000000 </v>
   <v>       0.50000000       0.00000000       0.00000000 </v>
   <v>       0.75000000       0.25000000       0.00000000 </v>
   <v>       0.75000000       0.00000000       0.25000000 </v>
   <v>       0.50000000       0.25000000       0.25000000 </v>
   <v>       0.50000000       0.00000000       0.50000000 </v>
   <v>       0.75000000       0.25000000       0.50000000 </v>
   <v>       0.75000000       0.00000000       0.75000000 </v>
   <v>       0.50000000       0.25000000       0.75000000 </v>
   <v>       0.50000000       0.50000000       0.00000000 </v>
   <v>       0.75000000       0.75000000       0.00000000 </v>
   <v>       0.75000000       0.50000000       0.25000000 </v>
   <v>       0.50000000       0.75000000       0.25000000 </v>
   <v>       0.50000000       0.50000000       0.50000000 </v>
   <v>       0.75000000       0.75000000       0.50000000 </v>
   <v>       0.75000000       0.50000000       0.75000000 </v>
   <v>       0.50000000       0.75000000       0.75000000 </v>
   <v>       0.25000000       0.25000000       0.25000000 </v>
   <v>       0.99732239       0.00000000       0.25000000 </v>
   <v>       0.00000000       0.25000000       0.00000000 </v>
   <v>       0.25000000       0.00000000       0.00000000 </v>
   <v>       0.25000000       0.25000000       0.75000000 </v>
   <v>       0.00000000       0.00000000       0.75000000 </v>
   <v>       0.00000000       0.25000000       0.50000000 </v>
   <v>       0.25000000       0.00000000       0.50000000 </v>
   <v>       0.25000000       0.75000000       0.25000000 </v>
   <v>       0.00000000       0.50000000       0.25000000 </v>
   <v>       0.00000000       0.75000000       0.00000000 </v>
   <v>       0.25000000       0.50000000       0.00000000 </v>
   <v>       0.25000000       0.75000000       0.75000000 </v>
   <v>       0.00000000       0.50000000       0.75000000 </v>
   <v>       0.00000000       0.75000000       0.50000000 </v>
   <v>       0.25000000       0.50000000       0.50000000 </v>
   <v>       0.75000000       0.25000000       0.25000000 </v>
   <v>       0.50000000       0.00000000       0.25000000 </v>
   <v>       0.50000000       0.25000000       0.00000000 </v>
   <v>       0.75000000       0.00000000       0.00000000 </v>
   <v>       0.75000000       0.25000000       0.75000000 </v>
   <v>       0.50000000       0.00000000       0.75000000 </v>
   <v>       0.50000000       0.25000000       0.50000000 </v>
   <v>       0.75000000       0.00000000       0.50000000 </v>
   <v>       0.75000000       0.75000000       0.25000000 </v>
   <v>       0.50000000       0.50000000       0.25000000 </v>
   <v>       0.50000000       0.75000000       0.00000000 </v>
   <v>       0.75000000       0.50000000       0.00000000 </v>
   <v>       0.75000000       0.75000000       0.75000000 </v>
   <v>       0.50000000       0.50000000       0.75000000 </v>
   <v>       0.50000000       0.75000000       0.50000000 </v>
   <v>       0.75000000       0.50000000       0.50000000 </v>
  </varray>
 </structure>
</modeling>
