  64  64   0   0
  0.2197554E+02  0.1120400E-08  0.1120400E-08  0.1120400E-08  0.5000000E-15
  1.000000000000000E-004
  CAR 
 unknown system                          
     11.04071699    -22.84879280  301     -0.56644011      1.00000000
    -22.849  0.0000E+00  0.0000E+00
    -22.736  0.0000E+00  0.0000E+00
    -22.623  0.0000E+00  0.0000E+00
    -22.510  0.0000E+00  0.0000E+00
    -22.397  0.0000E+00  0.0000E+00
    -22.284  0.0000E+00  0.0000E+00
    -22.171  0.0000E+00  0.0000E+00
    -22.058  0.0000E+00  0.0000E+00
    -21.945  0.0000E+00  0.0000E+00
    -21.832  0.0000E+00  0.0000E+00
    -21.719  0.0000E+00  0.0000E+00
    -21.606  0.0000E+00  0.0000E+00
    -21.493  0.0000E+00  0.0000E+00
    -21.380  0.6289E-05  0.7105E-06
    -21.267  0.1330E+04  0.1503E+03
    -21.154  0.3696E+03  0.1920E+03
    -21.041  0.0000E+00  0.1920E+03
    -20.928  0.0000E+00  0.1920E+03
    -20.815  0.0000E+00  0.1920E+03
    -20.702  0.0000E+00  0.1920E+03
    -20.589  0.0000E+00  0.1920E+03
    -20.477  0.0000E+00  0.1920E+03
    -20.364  0.0000E+00  0.1920E+03
    -20.251  0.0000E+00  0.1920E+03
    -20.138  0.0000E+00  0.1920E+03
    -20.025  0.0000E+00  0.1920E+03
    -19.912  0.0000E+00  0.1920E+03
    -19.799  0.0000E+00  0.1920E+03
    -19.686  0.0000E+00  0.1920E+03
    -19.573  0.0000E+00  0.1920E+03
    -19.460  0.0000E+00  0.1920E+03
    -19.347  0.0000E+00  0.1920E+03
    -19.234  0.0000E+00  0.1920E+03
    -19.121  0.0000E+00  0.1920E+03
    -19.008  0.0000E+00  0.1920E+03
    -18.895  0.0000E+00  0.1920E+03
    -18.782  0.0000E+00  0.1920E+03
    -18.669  0.0000E+00  0.1920E+03
    -18.556  0.0000E+00  0.1920E+03
    -18.443  0.0000E+00  0.1920E+03
    -18.330  0.0000E+00  0.1920E+03
    -18.217  0.0000E+00  0.1920E+03
    -18.104  0.0000E+00  0.1920E+03
    -17.991  0.0000E+00  0.1920E+03
    -17.878  0.0000E+00  0.1920E+03
    -17.765  0.0000E+00  0.1920E+03
    -17.652  0.0000E+00  0.1920E+03
    -17.539  0.0000E+00  0.1920E+03
    -17.426  0.0000E+00  0.1920E+03
    -17.314  0.0000E+00  0.1920E+03
    -17.201  0.0000E+00  0.1920E+03
    -17.088  0.0000E+00  0.1920E+03
    -16.975  0.0000E+00  0.1920E+03
    -16.862  0.0000E+00  0.1920E+03
    -16.749  0.0000E+00  0.1920E+03
    -16.636  0.0000E+00  0.1920E+03
    -16.523  0.0000E+00  0.1920E+03
    -16.410  0.0000E+00  0.1920E+03
    -16.297  0.0000E+00  0.1920E+03
    -16.184  0.0000E+00  0.1920E+03
    -16.071  0.0000E+00  0.1920E+03
    -15.958  0.0000E+00  0.1920E+03
    -15.845  0.0000E+00  0.1920E+03
    -15.732  0.0000E+00  0.1920E+03
    -15.619  0.0000E+00  0.1920E+03
    -15.506  0.0000E+00  0.1920E+03
    -15.393  0.0000E+00  0.1920E+03
    -15.280  0.0000E+00  0.1920E+03
    -15.167  0.0000E+00  0.1920E+03
    -15.054  0.0000E+00  0.1920E+03
    -14.941  0.0000E+00  0.1920E+03
    -14.828  0.0000E+00  0.1920E+03
    -14.715  0.0000E+00  0.1920E+03
    -14.602  0.0000E+00  0.1920E+03
    -14.489  0.0000E+00  0.1920E+03
    -14.376  0.0000E+00  0.1920E+03
    -14.263  0.0000E+00  0.1920E+03
    -14.150  0.0000E+00  0.1920E+03
    -14.038  0.0000E+00  0.1920E+03
    -13.925  0.0000E+00  0.1920E+03
    -13.812  0.0000E+00  0.1920E+03
    -13.699  0.0000E+00  0.1920E+03
    -13.586  0.0000E+00  0.1920E+03
    -13.473  0.6143E-15  0.1920E+03
    -13.360  0.1005E+01  0.1921E+03
    -13.247  0.1847E+02  0.1942E+03
    -13.134  0.4861E+02  0.1997E+03
    -13.021  0.1236E+03  0.2136E+03
    -12.908  0.3678E+03  0.2552E+03
    -12.795  0.7135E+01  0.2560E+03
    -12.682  0.0000E+00  0.2560E+03
    -12.569  0.0000E+00  0.2560E+03
    -12.456  0.0000E+00  0.2560E+03
    -12.343  0.0000E+00  0.2560E+03
    -12.230  0.0000E+00  0.2560E+03
    -12.117  0.0000E+00  0.2560E+03
    -12.004  0.0000E+00  0.2560E+03
    -11.891  0.0000E+00  0.2560E+03
    -11.778  0.0000E+00  0.2560E+03
    -11.665  0.0000E+00  0.2560E+03
    -11.552  0.0000E+00  0.2560E+03
    -11.439  0.0000E+00  0.2560E+03
    -11.326  0.0000E+00  0.2560E+03
    -11.213  0.0000E+00  0.2560E+03
    -11.100  0.0000E+00  0.2560E+03
    -10.987  0.0000E+00  0.2560E+03
    -10.874  0.0000E+00  0.2560E+03
    -10.762  0.0000E+00  0.2560E+03
    -10.649  0.0000E+00  0.2560E+03
    -10.536  0.0000E+00  0.2560E+03
    -10.423  0.0000E+00  0.2560E+03
    -10.310  0.0000E+00  0.2560E+03
    -10.197  0.0000E+00  0.2560E+03
    -10.084  0.0000E+00  0.2560E+03
     -9.971  0.0000E+00  0.2560E+03
     -9.858  0.0000E+00  0.2560E+03
     -9.745  0.0000E+00  0.2560E+03
     -9.632  0.0000E+00  0.2560E+03
     -9.519  0.0000E+00  0.2560E+03
     -9.406  0.0000E+00  0.2560E+03
     -9.293  0.0000E+00  0.2560E+03
     -9.180  0.0000E+00  0.2560E+03
     -9.067  0.0000E+00  0.2560E+03
     -8.954  0.0000E+00  0.2560E+03
     -8.841  0.0000E+00  0.2560E+03
     -8.728  0.0000E+00  0.2560E+03
     -8.615  0.0000E+00  0.2560E+03
     -8.502  0.0000E+00  0.2560E+03
     -8.389  0.0000E+00  0.2560E+03
     -8.276  0.0000E+00  0.2560E+03
     -8.163  0.0000E+00  0.2560E+03
     -8.050  0.0000E+00  0.2560E+03
     -7.937  0.0000E+00  0.2560E+03
     -7.824  0.0000E+00  0.2560E+03
     -7.711  0.0000E+00  0.2560E+03
     -7.599  0.0000E+00  0.2560E+03
     -7.486  0.0000E+00  0.2560E+03
     -7.373  0.0000E+00  0.2560E+03
     -7.260  0.0000E+00  0.2560E+03
     -7.147  0.0000E+00  0.2560E+03
     -7.034  0.0000E+00  0.2560E+03
     -6.921  0.0000E+00  0.2560E+03
     -6.808  0.0000E+00  0.2560E+03
     -6.695  0.0000E+00  0.2560E+03
     -6.582  0.0000E+00  0.2560E+03
     -6.469  0.0000E+00  0.2560E+03
     -6.356  0.0000E+00  0.2560E+03
     -6.243  0.0000E+00  0.2560E+03
     -6.130  0.0000E+00  0.2560E+03
     -6.017  0.0000E+00  0.2560E+03
     -5.904  0.0000E+00  0.2560E+03
     -5.791  0.0000E+00  0.2560E+03
     -5.678  0.0000E+00  0.2560E+03
     -5.565  0.0000E+00  0.2560E+03
     -5.452  0.0000E+00  0.2560E+03
     -5.339  0.0000E+00  0.2560E+03
     -5.226  0.0000E+00  0.2560E+03
     -5.113  0.0000E+00  0.2560E+03
     -5.000  0.0000E+00  0.2560E+03
     -4.887  0.0000E+00  0.2560E+03
     -4.774  0.0000E+00  0.2560E+03
     -4.661  0.0000E+00  0.2560E+03
     -4.548  0.0000E+00  0.2560E+03
     -4.435  0.0000E+00  0.2560E+03
     -4.323  0.0000E+00  0.2560E+03
     -4.210  0.0000E+00  0.2560E+03
     -4.097  0.0000E+00  0.2560E+03
     -3.984  0.0000E+00  0.2560E+03
     -3.871  0.0000E+00  0.2560E+03
     -3.758  0.0000E+00  0.2560E+03
     -3.645  0.0000E+00  0.2560E+03
     -3.532  0.0000E+00  0.2560E+03
     -3.419  0.0000E+00  0.2560E+03
     -3.306  0.0000E+00  0.2560E+03
     -3.193  0.0000E+00  0.2560E+03
     -3.080  0.0000E+00  0.2560E+03
     -2.967  0.0000E+00  0.2560E+03
     -2.854  0.0000E+00  0.2560E+03
     -2.741  0.1655E-01  0.2560E+03
     -2.628  0.8836E+01  0.2570E+03
     -2.515  0.1206E+02  0.2584E+03
     -2.402  0.8859E+02  0.2684E+03
     -2.289  0.7943E+02  0.2773E+03
     -2.176  0.1602E+03  0.2954E+03
     -2.063  0.7796E+02  0.3042E+03
     -1.950  0.5374E+02  0.3103E+03
     -1.837  0.5203E+02  0.3162E+03
     -1.724  0.8455E+02  0.3257E+03
     -1.611  0.1558E-11  0.3258E+03
     -1.498  0.4041E+02  0.3303E+03
     -1.385  0.2157E+03  0.3547E+03
     -1.272  0.3528E+02  0.3587E+03
     -1.160  0.2304E+03  0.3847E+03
     -1.047  0.1566E+03  0.4024E+03
     -0.934  0.2357E+03  0.4290E+03
     -0.821  0.8123E+02  0.4382E+03
     -0.708  0.7987E+02  0.4472E+03
     -0.595  0.7016E+01  0.4480E+03
     -0.482  0.0000E+00  0.4480E+03
     -0.369  0.0000E+00  0.4480E+03
     -0.256  0.0000E+00  0.4480E+03
     -0.143  0.0000E+00  0.4480E+03
     -0.030  0.0000E+00  0.4480E+03
      0.083  0.0000E+00  0.4480E+03
      0.196  0.0000E+00  0.4480E+03
      0.309  0.0000E+00  0.4480E+03
      0.422  0.0000E+00  0.4480E+03
      0.535  0.0000E+00  0.4480E+03
      0.648  0.0000E+00  0.4480E+03
      0.761  0.0000E+00  0.4480E+03
      0.874  0.0000E+00  0.4480E+03
      0.987  0.0000E+00  0.4480E+03
      1.100  0.0000E+00  0.4480E+03
      1.213  0.0000E+00  0.4480E+03
      1.326  0.0000E+00  0.4480E+03
      1.439  0.0000E+00  0.4480E+03
      1.552  0.0000E+00  0.4480E+03
      1.665  0.0000E+00  0.4480E+03
      1.778  0.0000E+00  0.4480E+03
      1.891  0.0000E+00  0.4480E+03
      2.004  0.0000E+00  0.4480E+03
      2.116  0.0000E+00  0.4480E+03
      2.229  0.0000E+00  0.4480E+03
      2.342  0.0000E+00  0.4480E+03
      2.455  0.0000E+00  0.4480E+03
      2.568  0.0000E+00  0.4480E+03
      2.681  0.0000E+00  0.4480E+03
      2.794  0.0000E+00  0.4480E+03
      2.907  0.0000E+00  0.4480E+03
      3.020  0.0000E+00  0.4480E+03
      3.133  0.0000E+00  0.4480E+03
      3.246  0.0000E+00  0.4480E+03
      3.359  0.0000E+00  0.4480E+03
      3.472  0.0000E+00  0.4480E+03
      3.585  0.0000E+00  0.4480E+03
      3.698  0.0000E+00  0.4480E+03
      3.811  0.0000E+00  0.4480E+03
      3.924  0.0000E+00  0.4480E+03
      4.037  0.0000E+00  0.4480E+03
      4.150  0.0000E+00  0.4480E+03
      4.263  0.4791E-07  0.4480E+03
      4.376  0.2200E+01  0.4482E+03
      4.489  0.1332E-01  0.4482E+03
      4.602  0.0000E+00  0.4482E+03
      4.715  0.0000E+00  0.4482E+03
      4.828  0.0000E+00  0.4482E+03
      4.941  0.7629E-07  0.4483E+03
      5.054  0.1309E+02  0.4497E+03
      5.167  0.1933E+00  0.4498E+03
      5.280  0.0000E+00  0.4498E+03
      5.392  0.0000E+00  0.4498E+03
      5.505  0.2689E+00  0.4498E+03
      5.618  0.2629E+02  0.4527E+03
      5.731  0.9204E-10  0.4528E+03
      5.844  0.1422E+02  0.4544E+03
      5.957  0.3486E+01  0.4548E+03
      6.070  0.0000E+00  0.4548E+03
      6.183  0.0000E+00  0.4548E+03
      6.296  0.1010E-04  0.4548E+03
      6.409  0.1329E+02  0.4563E+03
      6.522  0.8839E+01  0.4572E+03
      6.635  0.2092E+02  0.4596E+03
      6.748  0.8407E+02  0.4691E+03
      6.861  0.5499E+02  0.4753E+03
      6.974  0.1367E+02  0.4769E+03
      7.087  0.5610E+01  0.4775E+03
      7.200  0.2082E+01  0.4777E+03
      7.313  0.4565E+01  0.4783E+03
      7.426  0.7771E+02  0.4870E+03
      7.539  0.1579E+03  0.5049E+03
      7.652  0.1665E+02  0.5068E+03
      7.765  0.2655E+02  0.5097E+03
      7.878  0.5880E-02  0.5098E+03
      7.991  0.5311E+02  0.5157E+03
      8.104  0.1916E-02  0.5158E+03
      8.217  0.1330E+02  0.5173E+03
      8.330  0.9254E+02  0.5277E+03
      8.443  0.3879E+00  0.5278E+03
      8.555  0.1163E+03  0.5409E+03
      8.668  0.4301E+02  0.5457E+03
      8.781  0.6025E-09  0.5458E+03
      8.894  0.5745E+02  0.5522E+03
      9.007  0.1316E+03  0.5671E+03
      9.120  0.2119E+02  0.5695E+03
      9.233  0.8155E+01  0.5704E+03
      9.346  0.3611E+02  0.5745E+03
      9.459  0.1685E+00  0.5745E+03
      9.572  0.1311E+02  0.5760E+03
      9.685  0.0000E+00  0.5760E+03
      9.798  0.0000E+00  0.5760E+03
      9.911  0.0000E+00  0.5760E+03
     10.024  0.0000E+00  0.5760E+03
     10.137  0.0000E+00  0.5760E+03
     10.250  0.0000E+00  0.5760E+03
     10.363  0.0000E+00  0.5760E+03
     10.476  0.0000E+00  0.5760E+03
     10.589  0.0000E+00  0.5760E+03
     10.702  0.0000E+00  0.5760E+03
     10.815  0.0000E+00  0.5760E+03
     10.928  0.0000E+00  0.5760E+03
     11.041  0.0000E+00  0.5760E+03
