       N       E                     dE             d eps       ncg     rms          rms(c)
DAV:   1     0.432385030545E+04    0.43239E+04   -0.17163E+05  4608   0.125E+03
DAV:   2     0.363952996596E+03   -0.39599E+04   -0.37660E+04  5120   0.368E+02
DAV:   3    -0.206182069321E+03   -0.57014E+03   -0.56589E+03  5632   0.156E+02
DAV:   4    -0.228191003498E+03   -0.22009E+02   -0.21910E+02  5536   0.331E+01
DAV:   5    -0.229003582400E+03   -0.81258E+00   -0.81117E+00  5632   0.616E+00    0.106E+01
DAV:   6    -0.224138914859E+03    0.48647E+01   -0.94680E+00  5728   0.528E+00    0.776E+00
DAV:   7    -0.223777340110E+03    0.36157E+00   -0.20734E+00  6240   0.236E+00    0.533E+00
DAV:   8    -0.223902640800E+03   -0.12530E+00   -0.26611E-01  5344   0.123E+00    0.142E+00
DAV:   9    -0.223897047708E+03    0.55931E-02   -0.11581E-02  5728   0.263E-01    0.600E-01
DAV:  10    -0.223901338309E+03   -0.42906E-02   -0.18197E-02  5312   0.226E-01    0.289E-01
DAV:  11    -0.223900619055E+03    0.71925E-03   -0.15776E-03  5952   0.803E-02    0.863E-02
DAV:  12    -0.223900581106E+03    0.37949E-04   -0.14873E-04  5824   0.230E-02    0.144E-02
DAV:  13    -0.223900582486E+03   -0.13802E-05   -0.21441E-05  5792   0.759E-03    0.352E-03
DAV:  14    -0.223900583586E+03   -0.11002E-05   -0.16726E-06  5472   0.332E-03    0.837E-03
DAV:  15    -0.223900584723E+03   -0.11372E-05   -0.34741E-07  5504   0.153E-03    0.368E-03
DAV:  16    -0.223900585323E+03   -0.59932E-06   -0.15537E-07  5600   0.878E-04    0.528E-04
DAV:  17    -0.223900585343E+03   -0.20686E-07   -0.83533E-09  3616   0.522E-04    0.157E-04
DAV:  18    -0.223900585402E+03   -0.58208E-07   -0.67677E-09  3616   0.391E-04    0.402E-04
DAV:  19    -0.223900585373E+03    0.28471E-07   -0.51424E-09  3072   0.241E-04    0.294E-04
DAV:  20    -0.223900585340E+03    0.32909E-07   -0.15590E-09  3168   0.324E-04    0.192E-04
DAV:  21    -0.223900585307E+03    0.32822E-07   -0.14465E-09  3072   0.122E-04    0.779E-05
DAV:  22    -0.223900585306E+03    0.10186E-08   -0.59328E-10  3040   0.118E-04
   1 F= -.22390059E+03 E0= -.22390059E+03  d E =-.133026E-12
