<?xml version="1.0" encoding="ISO-8859-1"?>
<modeling>
 <generator>
  <i name="program" type="string">vasp </i>
  <i name="version" type="string">6.3.2  </i>
  <i name="subversion" type="string">27Jun22 (build Oct 14 2022 12:13:54) complex                          parallel </i>
  <i name="platform" type="string">LinuxIFC </i>
  <i name="date" type="string">2025 08 28 </i>
  <i name="time" type="string">22:03:36 </i>
 </generator>
 <incar>
  <i type="string" name="PREC">Accurate</i>
  <i type="int" name="IALGO">    38</i>
  <i type="logical" name="ADDGRID"> T  </i>
  <i type="int" name="NELMIN">     5</i>
  <i type="int" name="IBRION">    -1</i>
  <i name="EDIFF">      0.00000001</i>
  <i name="ENCUT">    341.21360000</i>
  <i type="logical" name="LREAL"> F  </i>
  <i type="int" name="ISMEAR">     0</i>
  <i name="SIGMA">      0.02000000</i>
  <i type="logical" name="LWAVE"> F  </i>
  <i type="logical" name="LCHARG"> F  </i>
  <i type="string" name="GGA">PS</i>
 </incar>
 <primitive_cell>
  <structure name="primitive_cell" >
   <crystal>
    <varray name="basis" >
     <v>      11.20400236       0.00000000       0.00000000 </v>
     <v>       0.00000000      11.20400236       0.00000000 </v>
     <v>       0.00000000       0.00000000      11.20400236 </v>
    </varray>
    <i name="volume">   1406.43470641 </i>
    <varray name="rec_basis" >
     <v>       0.08925382       0.00000000       0.00000000 </v>
     <v>       0.00000000       0.08925382       0.00000000 </v>
     <v>       0.00000000       0.00000000       0.08925382 </v>
    </varray>
   </crystal>
   <varray name="positions" >
    <v>       0.99732239       0.00000000       0.00000000 </v>
    <v>       0.25000000       0.25000000       0.00000000 </v>
    <v>       0.25000000       0.00000000       0.25000000 </v>
    <v>       0.00000000       0.25000000       0.25000000 </v>
    <v>       0.00000000       0.00000000       0.50000000 </v>
    <v>       0.25000000       0.25000000       0.50000000 </v>
    <v>       0.25000000       0.00000000       0.75000000 </v>
    <v>       0.00000000       0.25000000       0.75000000 </v>
    <v>       0.00000000       0.50000000       0.00000000 </v>
    <v>       0.25000000       0.75000000       0.00000000 </v>
    <v>       0.25000000       0.50000000       0.25000000 </v>
    <v>       0.00000000       0.75000000       0.25000000 </v>
    <v>       0.00000000       0.50000000       0.50000000 </v>
    <v>       0.25000000       0.75000000       0.50000000 </v>
    <v>       0.25000000       0.50000000       0.75000000 </v>
    <v>       0.00000000       0.75000000       0.75000000 </v>
    <v>       0.50000000       0.00000000       0.00000000 </v>
    <v>       0.75000000       0.25000000       0.00000000 </v>
    <v>       0.75000000       0.00000000       0.25000000 </v>
    <v>       0.50000000       0.25000000       0.25000000 </v>
    <v>       0.50000000       0.00000000       0.50000000 </v>
    <v>       0.75000000       0.25000000       0.50000000 </v>
    <v>       0.75000000       0.00000000       0.75000000 </v>
    <v>       0.50000000       0.25000000       0.75000000 </v>
    <v>       0.50000000       0.50000000       0.00000000 </v>
    <v>       0.75000000       0.75000000       0.00000000 </v>
    <v>       0.75000000       0.50000000       0.25000000 </v>
    <v>       0.50000000       0.75000000       0.25000000 </v>
    <v>       0.50000000       0.50000000       0.50000000 </v>
    <v>       0.75000000       0.75000000       0.50000000 </v>
    <v>       0.75000000       0.50000000       0.75000000 </v>
    <v>       0.50000000       0.75000000       0.75000000 </v>
    <v>       0.25000000       0.24732239       0.25000000 </v>
    <v>       0.00000000       0.00000000       0.25000000 </v>
    <v>       0.00000000       0.25000000       0.00000000 </v>
    <v>       0.25000000       0.00000000       0.00000000 </v>
    <v>       0.25000000       0.25000000       0.75000000 </v>
    <v>       0.00000000       0.00000000       0.75000000 </v>
    <v>       0.00000000       0.25000000       0.50000000 </v>
    <v>       0.25000000       0.00000000       0.50000000 </v>
    <v>       0.25000000       0.75000000       0.25000000 </v>
    <v>       0.00000000       0.50000000       0.25000000 </v>
    <v>       0.00000000       0.75000000       0.00000000 </v>
    <v>       0.25000000       0.50000000       0.00000000 </v>
    <v>       0.25000000       0.75000000       0.75000000 </v>
    <v>       0.00000000       0.50000000       0.75000000 </v>
    <v>       0.00000000       0.75000000       0.50000000 </v>
    <v>       0.25000000       0.50000000       0.50000000 </v>
    <v>       0.75000000       0.25000000       0.25000000 </v>
    <v>       0.50000000       0.00000000       0.25000000 </v>
    <v>       0.50000000       0.25000000       0.00000000 </v>
    <v>       0.75000000       0.00000000       0.00000000 </v>
    <v>       0.75000000       0.25000000       0.75000000 </v>
    <v>       0.50000000       0.00000000       0.75000000 </v>
    <v>       0.50000000       0.25000000       0.50000000 </v>
    <v>       0.75000000       0.00000000       0.50000000 </v>
    <v>       0.75000000       0.75000000       0.25000000 </v>
    <v>       0.50000000       0.50000000       0.25000000 </v>
    <v>       0.50000000       0.75000000       0.00000000 </v>
    <v>       0.75000000       0.50000000       0.00000000 </v>
    <v>       0.75000000       0.75000000       0.75000000 </v>
    <v>       0.50000000       0.50000000       0.75000000 </v>
    <v>       0.50000000       0.75000000       0.50000000 </v>
    <v>       0.75000000       0.50000000       0.50000000 </v>
   </varray>
  </structure>
  <varray name="primitive_index" >
   <v type="int" >        1 </v>
   <v type="int" >        2 </v>
   <v type="int" >        3 </v>
   <v type="int" >        4 </v>
   <v type="int" >        5 </v>
   <v type="int" >        6 </v>
   <v type="int" >        7 </v>
   <v type="int" >        8 </v>
   <v type="int" >        9 </v>
   <v type="int" >       10 </v>
   <v type="int" >       11 </v>
   <v type="int" >       12 </v>
   <v type="int" >       13 </v>
   <v type="int" >       14 </v>
   <v type="int" >       15 </v>
   <v type="int" >       16 </v>
   <v type="int" >       17 </v>
   <v type="int" >       18 </v>
   <v type="int" >       19 </v>
   <v type="int" >       20 </v>
   <v type="int" >       21 </v>
   <v type="int" >       22 </v>
   <v type="int" >       23 </v>
   <v type="int" >       24 </v>
   <v type="int" >       25 </v>
   <v type="int" >       26 </v>
   <v type="int" >       27 </v>
   <v type="int" >       28 </v>
   <v type="int" >       29 </v>
   <v type="int" >       30 </v>
   <v type="int" >       31 </v>
   <v type="int" >       32 </v>
   <v type="int" >       33 </v>
   <v type="int" >       34 </v>
   <v type="int" >       35 </v>
   <v type="int" >       36 </v>
   <v type="int" >       37 </v>
   <v type="int" >       38 </v>
   <v type="int" >       39 </v>
   <v type="int" >       40 </v>
   <v type="int" >       41 </v>
   <v type="int" >       42 </v>
   <v type="int" >       43 </v>
   <v type="int" >       44 </v>
   <v type="int" >       45 </v>
   <v type="int" >       46 </v>
   <v type="int" >       47 </v>
   <v type="int" >       48 </v>
   <v type="int" >       49 </v>
   <v type="int" >       50 </v>
   <v type="int" >       51 </v>
   <v type="int" >       52 </v>
   <v type="int" >       53 </v>
   <v type="int" >       54 </v>
   <v type="int" >       55 </v>
   <v type="int" >       56 </v>
   <v type="int" >       57 </v>
   <v type="int" >       58 </v>
   <v type="int" >       59 </v>
   <v type="int" >       60 </v>
   <v type="int" >       61 </v>
   <v type="int" >       62 </v>
   <v type="int" >       63 </v>
   <v type="int" >       64 </v>
  </varray>
 </primitive_cell>
 <kpoints>
  <generation param="Gamma">
   <v type="int" name="divisions">       2        2        2 </v>
   <v name="usershift">      0.00000000       0.00000000       0.00000000 </v>
   <v name="genvec1">      0.50000000       0.00000000       0.00000000 </v>
   <v name="genvec2">      0.00000000       0.50000000       0.00000000 </v>
   <v name="genvec3">      0.00000000       0.00000000       0.50000000 </v>
   <v name="shift">      0.00000000       0.00000000       0.00000000 </v>
  </generation>
  <varray name="kpointlist" >
   <v>       0.00000000       0.00000000       0.00000000 </v>
   <v>       0.50000000       0.00000000       0.00000000 </v>
   <v>       0.00000000       0.50000000       0.00000000 </v>
   <v>       0.00000000       0.00000000       0.50000000 </v>
   <v>       0.50000000       0.50000000       0.00000000 </v>
   <v>       0.00000000       0.50000000       0.50000000 </v>
   <v>       0.50000000       0.00000000       0.50000000 </v>
   <v>       0.50000000       0.50000000       0.50000000 </v>
  </varray>
  <varray name="weights" >
   <v>       0.12500000 </v>
   <v>       0.12500000 </v>
   <v>       0.12500000 </v>
   <v>       0.12500000 </v>
   <v>       0.12500000 </v>
   <v>       0.12500000 </v>
   <v>       0.12500000 </v>
   <v>       0.12500000 </v>
  </varray>
 </kpoints>
 <parameters>
  <separator name="general" >
   <i type="string" name="SYSTEM">unknown system</i>
   <i type="logical" name="LCOMPAT"> F  </i>
  </separator>
  <separator name="electronic" >
   <i type="string" name="PREC">accura</i>
   <i name="ENMAX">    341.21360000</i>
   <i name="ENAUG">    368.05600000</i>
   <i name="EDIFF">      0.00000001</i>
   <i type="int" name="IALGO">    38</i>
   <i type="int" name="IWAVPR">    10</i>
   <i type="int" name="NBANDS">   288</i>
   <i type="int" name="NBANDSLOW">    -1</i>
   <i type="int" name="NBANDSHIGH">    -1</i>
   <i name="NELECT">    448.00000000</i>
   <i type="int" name="TURBO">     0</i>
   <i type="int" name="IRESTART">     0</i>
   <i type="int" name="NREBOOT">     0</i>
   <i type="int" name="NMIN">     0</i>
   <i name="EREF">      0.00000000</i>
   <separator name="electronic smearing" >
    <i type="int" name="ISMEAR">     0</i>
    <i name="SIGMA">      0.02000000</i>
    <i name="KSPACING">      0.50000000</i>
    <i type="logical" name="KGAMMA"> T  </i>
    <i type="logical" name="KBLOWUP"> T  </i>
   </separator>
   <separator name="electronic projectors" >
    <i type="logical" name="LREAL"> F  </i>
    <v name="ROPT">      0.00000000      0.00000000</v>
    <i type="int" name="LMAXPAW">  -100</i>
    <i type="int" name="LMAXMIX">     2</i>
    <i type="logical" name="NLSPLINE"> F  </i>
   </separator>
   <separator name="electronic startup" >
    <i type="int" name="ISTART">     0</i>
    <i type="int" name="ICHARG">     2</i>
    <i type="int" name="INIWAV">     1</i>
   </separator>
   <separator name="electronic spin" >
    <i type="int" name="ISPIN">     1</i>
    <i type="logical" name="LNONCOLLINEAR"> F  </i>
    <v name="MAGMOM">      1.00000000      1.00000000      1.00000000      1.00000000      1.00000000      1.00000000      1.00000000      1.00000000      1.00000000      1.00000000      1.00000000      1.00000000      1.00000000      1.00000000      1.00000000      1.00000000      1.00000000      1.00000000      1.00000000      1.00000000
      1.00000000      1.00000000      1.00000000      1.00000000      1.00000000      1.00000000      1.00000000      1.00000000      1.00000000      1.00000000      1.00000000      1.00000000      1.00000000      1.00000000      1.00000000      1.00000000      1.00000000      1.00000000      1.00000000      1.00000000
      1.00000000      1.00000000      1.00000000      1.00000000      1.00000000      1.00000000      1.00000000      1.00000000      1.00000000      1.00000000      1.00000000      1.00000000      1.00000000      1.00000000      1.00000000      1.00000000      1.00000000      1.00000000      1.00000000      1.00000000
      1.00000000      1.00000000      1.00000000      1.00000000</v>
    <i name="NUPDOWN">     -1.00000000</i>
    <i type="logical" name="LSORBIT"> F  </i>
    <v name="SAXIS">      0.00000000      0.00000000      1.00000000</v>
    <i type="logical" name="LSPIRAL"> F  </i>
    <v name="QSPIRAL">      0.00000000      0.00000000      0.00000000</v>
    <i type="logical" name="LZEROZ"> F  </i>
   </separator>
   <separator name="electronic exchange-correlation" >
    <i type="logical" name="LASPH"> F  </i>
    <i type="logical" name="LMETAGGA"> F  </i>
   </separator>
   <separator name="electronic convergence" >
    <i type="int" name="NELM">    60</i>
    <i type="int" name="NELMDL">    -5</i>
    <i type="int" name="NELMIN">     5</i>
    <i name="ENINI">    341.21360000</i>
    <separator name="electronic convergence detail" >
     <i type="logical" name="LDIAG"> T  </i>
     <i type="logical" name="LSUBROT"> F  </i>
     <i name="WEIMIN">      0.00000000</i>
     <i name="EBREAK">      0.00000000</i>
     <i name="DEPER">      0.30000000</i>
     <i type="int" name="NRMM">     4</i>
     <i name="TIME">      0.40000000</i>
    </separator>
   </separator>
   <separator name="electronic mixer" >
    <i name="AMIX">      0.40000000</i>
    <i name="BMIX">      1.00000000</i>
    <i name="AMIN">      0.10000000</i>
    <i name="AMIX_MAG">      1.60000000</i>
    <i name="BMIX_MAG">      1.00000000</i>
    <separator name="electronic mixer details" >
     <i type="int" name="IMIX">     4</i>
     <i type="logical" name="MIXFIRST"> F  </i>
     <i type="int" name="MAXMIX">   -45</i>
     <i name="WC">    100.00000000</i>
     <i type="int" name="INIMIX">     1</i>
     <i type="int" name="MIXPRE">     1</i>
     <i type="int" name="MREMOVE">     5</i>
    </separator>
   </separator>
   <separator name="electronic dipolcorrection" >
    <i type="logical" name="LDIPOL"> F  </i>
    <i type="logical" name="LMONO"> F  </i>
    <i type="int" name="IDIPOL">     0</i>
    <i name="EPSILON">      1.00000000</i>
    <v name="DIPOL">   -100.00000000   -100.00000000   -100.00000000</v>
    <i name="EFIELD">      0.00000000</i>
   </separator>
  </separator>
  <separator name="grids" >
   <i type="int" name="NGX">    70</i>
   <i type="int" name="NGY">    70</i>
   <i type="int" name="NGZ">    70</i>
   <i type="int" name="NGXF">   140</i>
   <i type="int" name="NGYF">   140</i>
   <i type="int" name="NGZF">   140</i>
   <i type="logical" name="ADDGRID"> T  </i>
  </separator>
  <separator name="ionic" >
   <i type="int" name="NSW">     0</i>
   <i type="int" name="IBRION">    -1</i>
   <i type="int" name="MDALGO">     0</i>
   <i type="int" name="ISIF">     2</i>
   <i name="PSTRESS">      0.00000000</i>
   <i name="EDIFFG">      0.00000010</i>
   <i type="int" name="NFREE">     0</i>
   <i name="POTIM">      0.50000000</i>
   <i name="SMASS">     -3.00000000</i>
   <i name="SCALEE">      1.00000000</i>
  </separator>
  <separator name="ionic md" >
   <i name="TEBEG">      0.00010000</i>
   <i name="TEEND">      0.00010000</i>
   <i type="int" name="NBLOCK">     1</i>
   <i type="int" name="KBLOCK">     1</i>
   <i type="int" name="NPACO">   256</i>
   <i name="APACO">     10.00000000</i>
  </separator>
  <separator name="symmetry" >
   <i type="int" name="ISYM">     2</i>
   <i name="SYMPREC">      0.00001000</i>
  </separator>
  <separator name="dos" >
   <i type="int" name="LORBIT">     0</i>
   <v name="RWIGS">     -1.00000000     -1.00000000</v>
   <i type="int" name="NEDOS">   301</i>
   <i name="EMIN">     10.00000000</i>
   <i name="EMAX">    -10.00000000</i>
   <i name="EFERMI">      0.00000000</i>
  </separator>
  <separator name="writing" >
   <i type="int" name="NWRITE">     2</i>
   <i type="logical" name="LWAVE"> F  </i>
   <i type="logical" name="LDOWNSAMPLE"> F  </i>
   <i type="logical" name="LCHARG"> F  </i>
   <i type="logical" name="LPARD"> F  </i>
   <i type="logical" name="LVTOT"> F  </i>
   <i type="logical" name="LVHAR"> F  </i>
   <i type="logical" name="LELF"> F  </i>
   <i type="logical" name="LOPTICS"> F  </i>
   <v name="STM">      0.00000000      0.00000000      0.00000000      0.00000000      0.00000000      0.00000000      0.00000000</v>
  </separator>
  <separator name="performance" >
   <i type="int" name="NPAR">    32</i>
   <i type="int" name="NSIM">     4</i>
   <i type="int" name="NBLK">    -1</i>
   <i type="logical" name="LPLANE"> T  </i>
   <i type="logical" name="LSCALAPACK"> T  </i>
   <i type="logical" name="LSCAAWARE"> F  </i>
   <i type="logical" name="LSCALU"> F  </i>
   <i type="logical" name="LASYNC"> F  </i>
   <i type="logical" name="LORBITALREAL"> F  </i>
  </separator>
  <separator name="miscellaneous" >
   <i type="int" name="IDIOT">     3</i>
   <i type="int" name="PHON_NSTRUCT">    -1</i>
   <i type="logical" name="LMUSIC"> F  </i>
   <v name="POMASS">     22.99000000     35.45300000</v>
   <v name="DARWINR">      0.00000000      0.00000000</v>
   <v name="DARWINV">      1.00000000      1.00000000</v>
   <i type="logical" name="LCORR"> T  </i>
  </separator>
  <i type="logical" name="GGA_COMPAT"> T  </i>
  <i type="logical" name="LBERRY"> F  </i>
  <i type="int" name="ICORELEVEL">     0</i>
  <i type="logical" name="LDAU"> F  </i>
  <i type="int" name="I_CONSTRAINED_M">     0</i>
  <separator name="electronic exchange-correlation" >
   <i type="string" name="GGA">PS</i>
   <i type="int" name="VOSKOWN">     0</i>
   <i type="logical" name="LHFCALC"> F  </i>
   <i type="string" name="PRECFOCK"></i>
   <i type="logical" name="LSYMGRAD"> F  </i>
   <i type="logical" name="LHFONE"> F  </i>
   <i type="logical" name="LRHFCALC"> F  </i>
   <i type="logical" name="LTHOMAS"> F  </i>
   <i type="logical" name="LMODELHF"> F  </i>
   <i type="logical" name="LFOCKACE"> F  </i>
   <i name="ENCUT4O">     -1.00000000</i>
   <i type="int" name="EXXOEP">     0</i>
   <i type="int" name="FOURORBIT">     0</i>
   <i name="AEXX">      0.00000000</i>
   <i name="HFALPHA">      0.00000000</i>
   <i name="MCALPHA">      0.00000000</i>
   <i name="ALDAX">      1.00000000</i>
   <i name="AGGAX">      1.00000000</i>
   <i name="ALDAC">      1.00000000</i>
   <i name="AGGAC">      1.00000000</i>
   <i type="int" name="NKREDX">     1</i>
   <i type="int" name="NKREDY">     1</i>
   <i type="int" name="NKREDZ">     1</i>
   <i type="logical" name="SHIFTRED"> F  </i>
   <i type="logical" name="ODDONLY"> F  </i>
   <i type="logical" name="EVENONLY"> F  </i>
   <i type="int" name="LMAXFOCK">     0</i>
   <i type="int" name="NMAXFOCKAE">     0</i>
   <i type="logical" name="LFOCKAEDFT"> F  </i>
   <i name="HFSCREEN">      0.00000000</i>
   <i name="HFSCREENC">      0.00000000</i>
   <i type="int" name="NBANDSGWLOW">     0</i>
  </separator>
  <separator name="vdW DFT" >
   <i type="logical" name="LUSE_VDW"> F  </i>
   <i name="Zab_VDW">     -0.84910000</i>
   <i name="PARAM1">      0.12340000</i>
   <i name="PARAM2">      1.00000000</i>
   <i name="PARAM3">      0.00000000</i>
  </separator>
  <separator name="model GW" >
   <i type="int" name="MODEL_GW">     0</i>
   <i name="MODEL_EPS0">     13.18532537</i>
   <i name="MODEL_ALPHA">      1.00000000</i>
  </separator>
  <separator name="linear response parameters" >
   <i type="logical" name="LEPSILON"> F  </i>
   <i type="logical" name="LRPA"> F  </i>
   <i type="logical" name="LNABLA"> F  </i>
   <i type="logical" name="LVEL"> F  </i>
   <i name="CSHIFT">      0.10000000</i>
   <i name="OMEGAMAX">     -1.00000000</i>
   <i name="DEG_THRESHOLD">      0.00200000</i>
   <i name="RTIME">     -0.10000000</i>
   <i name="WPLASMAI">      0.00000000</i>
   <v name="DFIELD">      0.00000000      0.00000000      0.00000000</v>
   <v name="WPLASMA">      0.00000000      0.00000000      0.00000000      0.00000000      0.00000000      0.00000000      0.00000000      0.00000000      0.00000000</v>
  </separator>
  <separator name="orbital magnetization" >
   <i type="logical" name="NUCIND"> F  </i>
   <v name="MAGPOS">      0.00000000      0.00000000      0.00000000</v>
   <i type="logical" name="LNICSALL"> T  </i>
   <i type="logical" name="ORBITALMAG"> F  </i>
   <i type="logical" name="LMAGBLOCH"> F  </i>
   <i type="logical" name="LCHIMAG"> F  </i>
   <i type="logical" name="LGAUGE"> T  </i>
   <i type="int" name="MAGATOM">     0</i>
   <v name="MAGDIPOL">      0.00000000      0.00000000      0.00000000</v>
   <v name="AVECCONST">      0.00000000      0.00000000      0.00000000</v>
  </separator>
  <separator name="response functions" >
   <i type="logical" name="LFINITE_TEMPERATURE"> F  </i>
   <i type="logical" name="LADDER"> F  </i>
   <i type="logical" name="LRPAFORCE"> F  </i>
   <i type="logical" name="LFXC"> F  </i>
   <i type="logical" name="LHARTREE"> T  </i>
   <i type="int" name="IBSE">     0</i>
   <v type="int" name="KPOINT">    -1     0     0     0</v>
   <i type="logical" name="LTCTC"> F  </i>
   <i type="logical" name="LTCTE"> F  </i>
   <i type="logical" name="LTETE"> F  </i>
   <i type="logical" name="LTRIPLET"> F  </i>
   <i type="logical" name="LFXCEPS"> F  </i>
   <i type="logical" name="LFXHEG"> F  </i>
   <i type="int" name="NATURALO">     2</i>
   <i type="logical" name="LHOLEGF"> F  </i>
   <i type="logical" name="L2ORDER"> F  </i>
   <i type="logical" name="LDMP1"> F  </i>
   <i type="logical" name="LMP2LT"> F  </i>
   <i type="logical" name="LSMP2LT"> F  </i>
   <i type="logical" name="LGWLF"> F  </i>
   <i name="ENCUTGW">     -2.00000000</i>
   <i name="ENCUTGWSOFT">     -2.00000000</i>
   <i name="ENCUTLF">     -1.00000000</i>
   <i type="logical" name="LESF_SPLINES"> F  </i>
   <i type="int" name="LMAXMP2">    -1</i>
   <i name="SCISSOR">      0.00000000</i>
   <i type="int" name="NOMEGA">     0</i>
   <i type="int" name="NOMEGAR">     0</i>
   <i type="int" name="NBANDSGW">    -1</i>
   <i type="int" name="NBANDSO">    -1</i>
   <i type="int" name="NBANDSV">    -1</i>
   <i type="int" name="NELMGW">     1</i>
   <i type="int" name="NELMHF">     1</i>
   <i type="int" name="DIM">     3</i>
   <i type="int" name="IESPILON">     4</i>
   <i type="int" name="ANTIRES">     0</i>
   <i name="OMEGAMAX">    -30.00000000</i>
   <i name="OMEGAMIN">    -30.00000000</i>
   <i name="OMEGATL">   -200.00000000</i>
   <i type="int" name="OMEGAGRID">     0</i>
   <i name="CSHIFT">     -0.10000000</i>
   <i type="logical" name="LSELFENERGY"> F  </i>
   <i type="logical" name="LSPECTRAL"> F  </i>
   <i type="logical" name="LSPECTRALGW"> F  </i>
   <i type="logical" name="LSINGLES"> F  </i>
   <i type="logical" name="LFERMIGW"> F  </i>
   <i type="logical" name="ODDONLYGW"> F  </i>
   <i type="logical" name="EVENONLYGW"> F  </i>
   <i type="int" name="NKREDLFX">     1</i>
   <i type="int" name="NKREDLFY">     1</i>
   <i type="int" name="NKREDLFZ">     1</i>
   <i type="int" name="MAXMEM">  2800</i>
   <i type="int" name="TELESCOPE">     0</i>
   <i type="int" name="NTAUPAR">    -1</i>
   <i type="int" name="NOMEGAPAR">    -1</i>
   <i name="DAMP_NEWTON">      0.80000001</i>
   <i name="LAMBDA">      1.00000000</i>
  </separator>
  <separator name="External order field" >
   <i name="OFIELD_KAPPA">      0.00000000</i>
   <v name="OFIELD_K">      0.00000000      0.00000000      0.00000000</v>
   <i name="OFIELD_Q6_NEAR">      0.00000000</i>
   <i name="OFIELD_Q6_FAR">      0.00000000</i>
   <i name="OFIELD_A">      0.00000000</i>
  </separator>
  <separator name="optional k-points parameters" >
   <i type="int" name="KPOINTS_OPT_MODE">     1</i>
   <i type="logical" name="LKPOINTS_OPT"> F  </i>
  </separator>
 </parameters>
 <atominfo>
  <atoms>      64 </atoms>
  <types>       2 </types>
  <array name="atoms" >
   <dimension dim="1">ion</dimension>
   <field type="string">element</field>
   <field type="int">atomtype</field>
   <set>
    <rc><c>Na</c><c>   1</c></rc>
    <rc><c>Na</c><c>   1</c></rc>
    <rc><c>Na</c><c>   1</c></rc>
    <rc><c>Na</c><c>   1</c></rc>
    <rc><c>Na</c><c>   1</c></rc>
    <rc><c>Na</c><c>   1</c></rc>
    <rc><c>Na</c><c>   1</c></rc>
    <rc><c>Na</c><c>   1</c></rc>
    <rc><c>Na</c><c>   1</c></rc>
    <rc><c>Na</c><c>   1</c></rc>
    <rc><c>Na</c><c>   1</c></rc>
    <rc><c>Na</c><c>   1</c></rc>
    <rc><c>Na</c><c>   1</c></rc>
    <rc><c>Na</c><c>   1</c></rc>
    <rc><c>Na</c><c>   1</c></rc>
    <rc><c>Na</c><c>   1</c></rc>
    <rc><c>Na</c><c>   1</c></rc>
    <rc><c>Na</c><c>   1</c></rc>
    <rc><c>Na</c><c>   1</c></rc>
    <rc><c>Na</c><c>   1</c></rc>
    <rc><c>Na</c><c>   1</c></rc>
    <rc><c>Na</c><c>   1</c></rc>
    <rc><c>Na</c><c>   1</c></rc>
    <rc><c>Na</c><c>   1</c></rc>
    <rc><c>Na</c><c>   1</c></rc>
    <rc><c>Na</c><c>   1</c></rc>
    <rc><c>Na</c><c>   1</c></rc>
    <rc><c>Na</c><c>   1</c></rc>
    <rc><c>Na</c><c>   1</c></rc>
    <rc><c>Na</c><c>   1</c></rc>
    <rc><c>Na</c><c>   1</c></rc>
    <rc><c>Na</c><c>   1</c></rc>
    <rc><c>Cl</c><c>   2</c></rc>
    <rc><c>Cl</c><c>   2</c></rc>
    <rc><c>Cl</c><c>   2</c></rc>
    <rc><c>Cl</c><c>   2</c></rc>
    <rc><c>Cl</c><c>   2</c></rc>
    <rc><c>Cl</c><c>   2</c></rc>
    <rc><c>Cl</c><c>   2</c></rc>
    <rc><c>Cl</c><c>   2</c></rc>
    <rc><c>Cl</c><c>   2</c></rc>
    <rc><c>Cl</c><c>   2</c></rc>
    <rc><c>Cl</c><c>   2</c></rc>
    <rc><c>Cl</c><c>   2</c></rc>
    <rc><c>Cl</c><c>   2</c></rc>
    <rc><c>Cl</c><c>   2</c></rc>
    <rc><c>Cl</c><c>   2</c></rc>
    <rc><c>Cl</c><c>   2</c></rc>
    <rc><c>Cl</c><c>   2</c></rc>
    <rc><c>Cl</c><c>   2</c></rc>
    <rc><c>Cl</c><c>   2</c></rc>
    <rc><c>Cl</c><c>   2</c></rc>
    <rc><c>Cl</c><c>   2</c></rc>
    <rc><c>Cl</c><c>   2</c></rc>
    <rc><c>Cl</c><c>   2</c></rc>
    <rc><c>Cl</c><c>   2</c></rc>
    <rc><c>Cl</c><c>   2</c></rc>
    <rc><c>Cl</c><c>   2</c></rc>
    <rc><c>Cl</c><c>   2</c></rc>
    <rc><c>Cl</c><c>   2</c></rc>
    <rc><c>Cl</c><c>   2</c></rc>
    <rc><c>Cl</c><c>   2</c></rc>
    <rc><c>Cl</c><c>   2</c></rc>
    <rc><c>Cl</c><c>   2</c></rc>
   </set>
  </array>
  <array name="atomtypes" >
   <dimension dim="1">type</dimension>
   <field type="int">atomspertype</field>
   <field type="string">element</field>
   <field>mass</field>
   <field>valence</field>
   <field type="string">pseudopotential</field>
   <set>
    <rc><c>  32</c><c>Na</c><c>     22.99000000</c><c>      7.00000000</c><c>  PAW_PBE Na_pv 19Sep2006               </c></rc>
    <rc><c>  32</c><c>Cl</c><c>     35.45300000</c><c>      7.00000000</c><c>  PAW_PBE Cl 06Sep2000                  </c></rc>
   </set>
  </array>
 </atominfo>
 <structure name="initialpos" >
  <crystal>
   <varray name="basis" >
    <v>      11.20400236       0.00000000       0.00000000 </v>
    <v>       0.00000000      11.20400236       0.00000000 </v>
    <v>       0.00000000       0.00000000      11.20400236 </v>
   </varray>
   <i name="volume">   1406.43470641 </i>
   <varray name="rec_basis" >
    <v>       0.08925382       0.00000000       0.00000000 </v>
    <v>       0.00000000       0.08925382       0.00000000 </v>
    <v>       0.00000000       0.00000000       0.08925382 </v>
   </varray>
  </crystal>
  <varray name="positions" >
   <v>       0.99732239       0.00000000       0.00000000 </v>
   <v>       0.25000000       0.25000000       0.00000000 </v>
   <v>       0.25000000       0.00000000       0.25000000 </v>
   <v>       0.00000000       0.25000000       0.25000000 </v>
   <v>       0.00000000       0.00000000       0.50000000 </v>
   <v>       0.25000000       0.25000000       0.50000000 </v>
   <v>       0.25000000       0.00000000       0.75000000 </v>
   <v>       0.00000000       0.25000000       0.75000000 </v>
   <v>       0.00000000       0.50000000       0.00000000 </v>
   <v>       0.25000000       0.75000000       0.00000000 </v>
   <v>       0.25000000       0.50000000       0.25000000 </v>
   <v>       0.00000000       0.75000000       0.25000000 </v>
   <v>       0.00000000       0.50000000       0.50000000 </v>
   <v>       0.25000000       0.75000000       0.50000000 </v>
   <v>       0.25000000       0.50000000       0.75000000 </v>
   <v>       0.00000000       0.75000000       0.75000000 </v>
   <v>       0.50000000       0.00000000       0.00000000 </v>
   <v>       0.75000000       0.25000000       0.00000000 </v>
   <v>       0.75000000       0.00000000       0.25000000 </v>
   <v>       0.50000000       0.25000000       0.25000000 </v>
   <v>       0.50000000       0.00000000       0.50000000 </v>
   <v>       0.75000000       0.25000000       0.50000000 </v>
   <v>       0.75000000       0.00000000       0.75000000 </v>
   <v>       0.50000000       0.25000000       0.75000000 </v>
   <v>       0.50000000       0.50000000       0.00000000 </v>
   <v>       0.75000000       0.75000000       0.00000000 </v>
   <v>       0.75000000       0.50000000       0.25000000 </v>
   <v>       0.50000000       0.75000000       0.25000000 </v>
   <v>       0.50000000       0.50000000       0.50000000 </v>
   <v>       0.75000000       0.75000000       0.50000000 </v>
   <v>       0.75000000       0.50000000       0.75000000 </v>
   <v>       0.50000000       0.75000000       0.75000000 </v>
   <v>       0.25000000       0.24732239       0.25000000 </v>
   <v>       0.00000000       0.00000000       0.25000000 </v>
   <v>       0.00000000       0.25000000       0.00000000 </v>
   <v>       0.25000000       0.00000000       0.00000000 </v>
   <v>       0.25000000       0.25000000       0.75000000 </v>
   <v>       0.00000000       0.00000000       0.75000000 </v>
   <v>       0.00000000       0.25000000       0.50000000 </v>
   <v>       0.25000000       0.00000000       0.50000000 </v>
   <v>       0.25000000       0.75000000       0.25000000 </v>
   <v>       0.00000000       0.50000000       0.25000000 </v>
   <v>       0.00000000       0.75000000       0.00000000 </v>
   <v>       0.25000000       0.50000000       0.00000000 </v>
   <v>       0.25000000       0.75000000       0.75000000 </v>
   <v>       0.00000000       0.50000000       0.75000000 </v>
   <v>       0.00000000       0.75000000       0.50000000 </v>
   <v>       0.25000000       0.50000000       0.50000000 </v>
   <v>       0.75000000       0.25000000       0.25000000 </v>
   <v>       0.50000000       0.00000000       0.25000000 </v>
   <v>       0.50000000       0.25000000       0.00000000 </v>
   <v>       0.75000000       0.00000000       0.00000000 </v>
   <v>       0.75000000       0.25000000       0.75000000 </v>
   <v>       0.50000000       0.00000000       0.75000000 </v>
   <v>       0.50000000       0.25000000       0.50000000 </v>
   <v>       0.75000000       0.00000000       0.50000000 </v>
   <v>       0.75000000       0.75000000       0.25000000 </v>
   <v>       0.50000000       0.50000000       0.25000000 </v>
   <v>       0.50000000       0.75000000       0.00000000 </v>
   <v>       0.75000000       0.50000000       0.00000000 </v>
   <v>       0.75000000       0.75000000       0.75000000 </v>
   <v>       0.50000000       0.50000000       0.75000000 </v>
   <v>       0.50000000       0.75000000       0.50000000 </v>
   <v>       0.75000000       0.50000000       0.50000000 </v>
  </varray>
 </structure>
 <calculation>
  <scstep>
   <time name="dav">    9.74    9.79</time>
   <time name="total">    9.81    9.87</time>
   <energy>
    <i name="alphaZ">    751.52672365 </i>
    <i name="ewald"> -22871.34503388 </i>
    <i name="hartreedc">  -8992.24163265 </i>
    <i name="XCdc">   1456.53425899 </i>
    <i name="pawpsdc">  26466.43774078 </i>
    <i name="pawaedc"> -29286.08056155 </i>
    <i name="eentropy">     -0.00294960 </i>
    <i name="bandstr">   -733.15771021 </i>
    <i name="atom">  37532.17946992 </i>
    <i name="e_fr_energy">   4323.85030545 </i>
    <i name="e_wo_entrp">   4323.85325505 </i>
    <i name="e_0_energy">   4323.85178025 </i>
   </energy>
  </scstep>
  <scstep>
   <time name="dav">   10.57   10.63</time>
   <time name="total">   10.57   10.63</time>
   <energy>
    <i name="e_fr_energy">    363.95299660 </i>
    <i name="e_wo_entrp">    363.95299660 </i>
    <i name="e_0_energy">    363.95299660 </i>
   </energy>
  </scstep>
  <scstep>
   <time name="dav">   11.45   11.51</time>
   <time name="total">   11.45   11.51</time>
   <energy>
    <i name="e_fr_energy">   -206.18206932 </i>
    <i name="e_wo_entrp">   -206.18206932 </i>
    <i name="e_0_energy">   -206.18206932 </i>
   </energy>
  </scstep>
  <scstep>
   <time name="dav">   11.29   11.35</time>
   <time name="total">   11.29   11.35</time>
   <energy>
    <i name="e_fr_energy">   -228.19100350 </i>
    <i name="e_wo_entrp">   -228.19100350 </i>
    <i name="e_0_energy">   -228.19100350 </i>
   </energy>
  </scstep>
  <scstep>
   <time name="dav">   11.45   11.51</time>
   <time name="total">   11.78   11.84</time>
   <energy>
    <i name="e_fr_energy">   -229.00358240 </i>
    <i name="e_wo_entrp">   -229.00358240 </i>
    <i name="e_0_energy">   -229.00358240 </i>
   </energy>
  </scstep>
  <scstep>
   <time name="dav">   11.60   11.67</time>
   <time name="total">   12.01   12.08</time>
   <energy>
    <i name="e_fr_energy">   -224.13891486 </i>
    <i name="e_wo_entrp">   -224.13891486 </i>
    <i name="e_0_energy">   -224.13891486 </i>
   </energy>
  </scstep>
  <scstep>
   <time name="dav">   12.43   12.50</time>
   <time name="total">   12.83   12.91</time>
   <energy>
    <i name="e_fr_energy">   -223.77734011 </i>
    <i name="e_wo_entrp">   -223.77734011 </i>
    <i name="e_0_energy">   -223.77734011 </i>
   </energy>
  </scstep>
  <scstep>
   <time name="dav">   10.97   11.03</time>
   <time name="total">   11.37   11.43</time>
   <energy>
    <i name="e_fr_energy">   -223.90264080 </i>
    <i name="e_wo_entrp">   -223.90264080 </i>
    <i name="e_0_energy">   -223.90264080 </i>
   </energy>
  </scstep>
  <scstep>
   <time name="dav">   11.58   11.65</time>
   <time name="total">   11.98   12.05</time>
   <energy>
    <i name="e_fr_energy">   -223.89704771 </i>
    <i name="e_wo_entrp">   -223.89704771 </i>
    <i name="e_0_energy">   -223.89704771 </i>
   </energy>
  </scstep>
  <scstep>
   <time name="dav">   10.91   10.97</time>
   <time name="total">   11.31   11.37</time>
   <energy>
    <i name="e_fr_energy">   -223.90133831 </i>
    <i name="e_wo_entrp">   -223.90133831 </i>
    <i name="e_0_energy">   -223.90133831 </i>
   </energy>
  </scstep>
  <scstep>
   <time name="dav">   11.96   12.03</time>
   <time name="total">   12.37   12.43</time>
   <energy>
    <i name="e_fr_energy">   -223.90061905 </i>
    <i name="e_wo_entrp">   -223.90061905 </i>
    <i name="e_0_energy">   -223.90061905 </i>
   </energy>
  </scstep>
  <scstep>
   <time name="dav">   11.72   11.78</time>
   <time name="total">   12.12   12.18</time>
   <energy>
    <i name="e_fr_energy">   -223.90058111 </i>
    <i name="e_wo_entrp">   -223.90058111 </i>
    <i name="e_0_energy">   -223.90058111 </i>
   </energy>
  </scstep>
  <scstep>
   <time name="dav">   11.71   11.77</time>
   <time name="total">   12.10   12.17</time>
   <energy>
    <i name="e_fr_energy">   -223.90058249 </i>
    <i name="e_wo_entrp">   -223.90058249 </i>
    <i name="e_0_energy">   -223.90058249 </i>
   </energy>
  </scstep>
  <scstep>
   <time name="dav">   11.20   11.26</time>
   <time name="total">   11.60   11.67</time>
   <energy>
    <i name="e_fr_energy">   -223.90058359 </i>
    <i name="e_wo_entrp">   -223.90058359 </i>
    <i name="e_0_energy">   -223.90058359 </i>
   </energy>
  </scstep>
  <scstep>
   <time name="dav">   11.22   11.28</time>
   <time name="total">   11.62   11.68</time>
   <energy>
    <i name="e_fr_energy">   -223.90058472 </i>
    <i name="e_wo_entrp">   -223.90058472 </i>
    <i name="e_0_energy">   -223.90058472 </i>
   </energy>
  </scstep>
  <scstep>
   <time name="dav">   11.36   11.42</time>
   <time name="total">   11.76   11.82</time>
   <energy>
    <i name="e_fr_energy">   -223.90058532 </i>
    <i name="e_wo_entrp">   -223.90058532 </i>
    <i name="e_0_energy">   -223.90058532 </i>
   </energy>
  </scstep>
  <scstep>
   <time name="dav">    8.23    8.27</time>
   <time name="total">    8.63    8.67</time>
   <energy>
    <i name="e_fr_energy">   -223.90058534 </i>
    <i name="e_wo_entrp">   -223.90058534 </i>
    <i name="e_0_energy">   -223.90058534 </i>
   </energy>
  </scstep>
  <scstep>
   <time name="dav">    8.21    8.25</time>
   <time name="total">    8.61    8.66</time>
   <energy>
    <i name="e_fr_energy">   -223.90058540 </i>
    <i name="e_wo_entrp">   -223.90058540 </i>
    <i name="e_0_energy">   -223.90058540 </i>
   </energy>
  </scstep>
  <scstep>
   <time name="dav">    7.36    7.40</time>
   <time name="total">    7.76    7.80</time>
   <energy>
    <i name="e_fr_energy">   -223.90058537 </i>
    <i name="e_wo_entrp">   -223.90058537 </i>
    <i name="e_0_energy">   -223.90058537 </i>
   </energy>
  </scstep>
  <scstep>
   <time name="dav">    7.51    7.55</time>
   <time name="total">    7.91    7.96</time>
   <energy>
    <i name="e_fr_energy">   -223.90058534 </i>
    <i name="e_wo_entrp">   -223.90058534 </i>
    <i name="e_0_energy">   -223.90058534 </i>
   </energy>
  </scstep>
  <scstep>
   <time name="dav">    7.35    7.39</time>
   <time name="total">    7.75    7.80</time>
   <energy>
    <i name="e_fr_energy">   -223.90058531 </i>
    <i name="e_wo_entrp">   -223.90058531 </i>
    <i name="e_0_energy">   -223.90058531 </i>
   </energy>
  </scstep>
  <scstep>
   <time name="dav">    7.31    7.35</time>
   <time name="total">    7.38    7.42</time>
   <energy>
    <i name="alphaZ">    751.52672365 </i>
    <i name="ewald"> -22871.34503388 </i>
    <i name="hartreedc">  -9078.15724385 </i>
    <i name="XCdc">   1472.51343078 </i>
    <i name="pawpsdc">  29498.29388410 </i>
    <i name="pawaedc"> -32317.65857115 </i>
    <i name="eentropy">     -0.00000000 </i>
    <i name="bandstr">  -5211.25324489 </i>
    <i name="atom">  37532.17946992 </i>
    <i name="e_fr_energy">   -223.90058531 </i>
    <i name="e_wo_entrp">   -223.90058531 </i>
    <i name="e_0_energy">   -223.90058531 </i>
   </energy>
  </scstep>
  <structure>
   <crystal>
    <varray name="basis" >
     <v>      11.20400236       0.00000000       0.00000000 </v>
     <v>       0.00000000      11.20400236       0.00000000 </v>
     <v>       0.00000000       0.00000000      11.20400236 </v>
    </varray>
    <i name="volume">   1406.43470641 </i>
    <varray name="rec_basis" >
     <v>       0.08925382       0.00000000       0.00000000 </v>
     <v>       0.00000000       0.08925382       0.00000000 </v>
     <v>       0.00000000       0.00000000       0.08925382 </v>
    </varray>
   </crystal>
   <varray name="positions" >
    <v>       0.99732239       0.00000000       0.00000000 </v>
    <v>       0.25000000       0.25000000       0.00000000 </v>
    <v>       0.25000000       0.00000000       0.25000000 </v>
    <v>       0.00000000       0.25000000       0.25000000 </v>
    <v>       0.00000000       0.00000000       0.50000000 </v>
    <v>       0.25000000       0.25000000       0.50000000 </v>
    <v>       0.25000000       0.00000000       0.75000000 </v>
    <v>       0.00000000       0.25000000       0.75000000 </v>
    <v>       0.00000000       0.50000000       0.00000000 </v>
    <v>       0.25000000       0.75000000       0.00000000 </v>
    <v>       0.25000000       0.50000000       0.25000000 </v>
    <v>       0.00000000       0.75000000       0.25000000 </v>
    <v>       0.00000000       0.50000000       0.50000000 </v>
    <v>       0.25000000       0.75000000       0.50000000 </v>
    <v>       0.25000000       0.50000000       0.75000000 </v>
    <v>       0.00000000       0.75000000       0.75000000 </v>
    <v>       0.50000000       0.00000000       0.00000000 </v>
    <v>       0.75000000       0.25000000       0.00000000 </v>
    <v>       0.75000000       0.00000000       0.25000000 </v>
    <v>       0.50000000       0.25000000       0.25000000 </v>
    <v>       0.50000000       0.00000000       0.50000000 </v>
    <v>       0.75000000       0.25000000       0.50000000 </v>
    <v>       0.75000000       0.00000000       0.75000000 </v>
    <v>       0.50000000       0.25000000       0.75000000 </v>
    <v>       0.50000000       0.50000000       0.00000000 </v>
    <v>       0.75000000       0.75000000       0.00000000 </v>
    <v>       0.75000000       0.50000000       0.25000000 </v>
    <v>       0.50000000       0.75000000       0.25000000 </v>
    <v>       0.50000000       0.50000000       0.50000000 </v>
    <v>       0.75000000       0.75000000       0.50000000 </v>
    <v>       0.75000000       0.50000000       0.75000000 </v>
    <v>       0.50000000       0.75000000       0.75000000 </v>
    <v>       0.25000000       0.24732239       0.25000000 </v>
    <v>       0.00000000       0.00000000       0.25000000 </v>
    <v>       0.00000000       0.25000000       0.00000000 </v>
    <v>       0.25000000       0.00000000       0.00000000 </v>
    <v>       0.25000000       0.25000000       0.75000000 </v>
    <v>       0.00000000       0.00000000       0.75000000 </v>
    <v>       0.00000000       0.25000000       0.50000000 </v>
    <v>       0.25000000       0.00000000       0.50000000 </v>
    <v>       0.25000000       0.75000000       0.25000000 </v>
    <v>       0.00000000       0.50000000       0.25000000 </v>
    <v>       0.00000000       0.75000000       0.00000000 </v>
    <v>       0.25000000       0.50000000       0.00000000 </v>
    <v>       0.25000000       0.75000000       0.75000000 </v>
    <v>       0.00000000       0.50000000       0.75000000 </v>
    <v>       0.00000000       0.75000000       0.50000000 </v>
    <v>       0.25000000       0.50000000       0.50000000 </v>
    <v>       0.75000000       0.25000000       0.25000000 </v>
    <v>       0.50000000       0.00000000       0.25000000 </v>
    <v>       0.50000000       0.25000000       0.00000000 </v>
    <v>       0.75000000       0.00000000       0.00000000 </v>
    <v>       0.75000000       0.25000000       0.75000000 </v>
    <v>       0.50000000       0.00000000       0.75000000 </v>
    <v>       0.50000000       0.25000000       0.50000000 </v>
    <v>       0.75000000       0.00000000       0.50000000 </v>
    <v>       0.75000000       0.75000000       0.25000000 </v>
    <v>       0.50000000       0.50000000       0.25000000 </v>
    <v>       0.50000000       0.75000000       0.00000000 </v>
    <v>       0.75000000       0.50000000       0.00000000 </v>
    <v>       0.75000000       0.75000000       0.75000000 </v>
    <v>       0.50000000       0.50000000       0.75000000 </v>
    <v>       0.50000000       0.75000000       0.50000000 </v>
    <v>       0.75000000       0.50000000       0.50000000 </v>
   </varray>
  </structure>
  <varray name="forces" >
   <v>       0.06409333       0.00020139       0.00129231 </v>
   <v>      -0.00150747      -0.01080970       0.00008970 </v>
   <v>      -0.00150652      -0.02027391      -0.00579548 </v>
   <v>       0.00175948      -0.00503028      -0.00001665 </v>
   <v>       0.00134981       0.00021431      -0.00129744 </v>
   <v>       0.00002131      -0.00494166      -0.00009967 </v>
   <v>      -0.00150741      -0.00016753       0.00580031 </v>
   <v>       0.00166661      -0.00062741       0.00001839 </v>
   <v>      -0.00123619       0.00023582      -0.00129025 </v>
   <v>      -0.00150782       0.00863623       0.00000209 </v>
   <v>       0.00002091      -0.01621007       0.00007205 </v>
   <v>       0.00166712       0.00285314      -0.00001945 </v>
   <v>      -0.00083589       0.00023479       0.00129034 </v>
   <v>       0.00002093       0.00276229      -0.00000213 </v>
   <v>       0.00002101      -0.00015152      -0.00007353 </v>
   <v>       0.00166767       0.00068968       0.00001933 </v>
   <v>      -0.01021329       0.00021275       0.00129111 </v>
   <v>      -0.00151400       0.00531847       0.00000189 </v>
   <v>      -0.00151465      -0.00016709       0.00592603 </v>
   <v>      -0.00126038      -0.00500758       0.00000703 </v>
   <v>      -0.00160926       0.00021441      -0.00129817 </v>
   <v>       0.00003324      -0.00068524      -0.00000169 </v>
   <v>      -0.00151364      -0.00000558      -0.00592639 </v>
   <v>      -0.00116581      -0.00060350      -0.00000547 </v>
   <v>       0.00098039       0.00023564      -0.00129025 </v>
   <v>      -0.00151381      -0.00525624       0.00000281 </v>
   <v>       0.00003340      -0.00015165      -0.00007721 </v>
   <v>      -0.00116642       0.00283001       0.00000441 </v>
   <v>       0.00084818       0.00023472       0.00129030 </v>
   <v>       0.00003341       0.00074764      -0.00000271 </v>
   <v>       0.00003337       0.00000365       0.00007721 </v>
   <v>      -0.00116697       0.00066582      -0.00000449 </v>
   <v>       0.00024559       0.07733935       0.00131682 </v>
   <v>      -0.01087604      -0.00390935      -0.00013432 </v>
   <v>      -0.00496264       0.00220890       0.00003161 </v>
   <v>      -0.01617130      -0.00392210      -0.00589341 </v>
   <v>       0.00024036       0.00283135      -0.00128154 </v>
   <v>      -0.00557531       0.00005311       0.00012543 </v>
   <v>      -0.00056943       0.00234743      -0.00002846 </v>
   <v>      -0.00014038      -0.00392090       0.00588380 </v>
   <v>       0.00024018      -0.00512444       0.00128055 </v>
   <v>       0.00513664      -0.00385967       0.00000953 </v>
   <v>      -0.00499951      -0.00142158      -0.00000281 </v>
   <v>      -0.00014033      -0.00386028       0.00573509 </v>
   <v>       0.00024056      -0.00324257      -0.00128255 </v>
   <v>      -0.00003033       0.00003793      -0.00000926 </v>
   <v>      -0.00060156      -0.00155612       0.00000289 </v>
   <v>       0.00001145      -0.00386014      -0.00573604 </v>
   <v>       0.00021935       0.00024374      -0.00130535 </v>
   <v>       0.00871481      -0.00391538      -0.00001629 </v>
   <v>       0.00280350       0.00232334       0.00003025 </v>
   <v>      -0.02022754       0.00005335      -0.00057597 </v>
   <v>       0.00021926      -0.00078579       0.00130612 </v>
   <v>       0.00341149       0.00005289       0.00001241 </v>
   <v>       0.00064497       0.00233599      -0.00002802 </v>
   <v>      -0.00016991       0.00005265       0.00057518 </v>
   <v>       0.00021912      -0.00065465      -0.00130501 </v>
   <v>      -0.00506240      -0.00386036      -0.00000118 </v>
   <v>       0.00283912      -0.00153464      -0.00000277 </v>
   <v>      -0.00017046       0.00003805       0.00056738 </v>
   <v>       0.00021903       0.00077734       0.00130524 </v>
   <v>       0.00010438       0.00003786       0.00000144 </v>
   <v>       0.00067573      -0.00154560       0.00000283 </v>
   <v>       0.00000093       0.00003849      -0.00056790 </v>
  </varray>
  <varray name="stress" >
   <v>      -0.36728207       0.00001166      -0.00008477 </v>
   <v>       0.00001152      -0.36703805      -0.00006707 </v>
   <v>      -0.00008476      -0.00006708      -0.37875933 </v>
  </varray>
  <energy>
   <i name="e_fr_energy">   -223.90058531 </i>
   <i name="e_wo_entrp">   -223.90058531 </i>
   <i name="e_0_energy">   -223.90058531 </i>
  </energy>
  <time name="totalsc">  249.25  250.65</time>
  <eigenvalues>
   <array>
    <dimension dim="1">band</dimension>
    <dimension dim="2">kpoint</dimension>
    <dimension dim="3">spin</dimension>
    <field>eigene</field>
    <field>occ</field>
    <set>
     <set comment="spin 1">
      <set comment="kpoint 1">
       <r>  -21.3084    1.0000 </r>
       <r>  -21.3081    1.0000 </r>
       <r>  -21.3076    1.0000 </r>
       <r>  -21.3039    1.0000 </r>
       <r>  -21.3018    1.0000 </r>
       <r>  -21.3016    1.0000 </r>
       <r>  -21.2999    1.0000 </r>
       <r>  -21.2947    1.0000 </r>
       <r>  -21.2943    1.0000 </r>
       <r>  -21.2940    1.0000 </r>
       <r>  -21.2939    1.0000 </r>
       <r>  -21.2937    1.0000 </r>
       <r>  -21.2934    1.0000 </r>
       <r>  -21.2933    1.0000 </r>
       <r>  -21.2933    1.0000 </r>
       <r>  -21.2932    1.0000 </r>
       <r>  -21.2931    1.0000 </r>
       <r>  -21.2925    1.0000 </r>
       <r>  -21.2921    1.0000 </r>
       <r>  -21.2912    1.0000 </r>
       <r>  -21.2898    1.0000 </r>
       <r>  -21.2894    1.0000 </r>
       <r>  -21.2870    1.0000 </r>
       <r>  -21.2867    1.0000 </r>
       <r>  -21.2866    1.0000 </r>
       <r>  -21.2863    1.0000 </r>
       <r>  -21.2862    1.0000 </r>
       <r>  -21.2861    1.0000 </r>
       <r>  -21.2860    1.0000 </r>
       <r>  -21.2860    1.0000 </r>
       <r>  -21.2850    1.0000 </r>
       <r>  -21.2849    1.0000 </r>
       <r>  -21.2844    1.0000 </r>
       <r>  -21.2842    1.0000 </r>
       <r>  -21.2835    1.0000 </r>
       <r>  -21.2834    1.0000 </r>
       <r>  -21.2831    1.0000 </r>
       <r>  -21.2826    1.0000 </r>
       <r>  -21.2825    1.0000 </r>
       <r>  -21.2825    1.0000 </r>
       <r>  -21.2818    1.0000 </r>
       <r>  -21.2814    1.0000 </r>
       <r>  -21.2812    1.0000 </r>
       <r>  -21.2810    1.0000 </r>
       <r>  -21.2810    1.0000 </r>
       <r>  -21.2810    1.0000 </r>
       <r>  -21.2806    1.0000 </r>
       <r>  -21.2804    1.0000 </r>
       <r>  -21.2800    1.0000 </r>
       <r>  -21.2800    1.0000 </r>
       <r>  -21.2799    1.0000 </r>
       <r>  -21.2799    1.0000 </r>
       <r>  -21.2798    1.0000 </r>
       <r>  -21.2798    1.0000 </r>
       <r>  -21.2796    1.0000 </r>
       <r>  -21.2796    1.0000 </r>
       <r>  -21.2793    1.0000 </r>
       <r>  -21.2786    1.0000 </r>
       <r>  -21.2776    1.0000 </r>
       <r>  -21.2776    1.0000 </r>
       <r>  -21.2771    1.0000 </r>
       <r>  -21.2763    1.0000 </r>
       <r>  -21.2759    1.0000 </r>
       <r>  -21.2755    1.0000 </r>
       <r>  -21.2753    1.0000 </r>
       <r>  -21.2752    1.0000 </r>
       <r>  -21.2751    1.0000 </r>
       <r>  -21.2750    1.0000 </r>
       <r>  -21.2747    1.0000 </r>
       <r>  -21.2742    1.0000 </r>
       <r>  -21.2741    1.0000 </r>
       <r>  -21.2740    1.0000 </r>
       <r>  -21.2740    1.0000 </r>
       <r>  -21.2736    1.0000 </r>
       <r>  -21.2734    1.0000 </r>
       <r>  -21.2729    1.0000 </r>
       <r>  -21.2720    1.0000 </r>
       <r>  -21.2716    1.0000 </r>
       <r>  -21.2715    1.0000 </r>
       <r>  -21.2714    1.0000 </r>
       <r>  -21.2712    1.0000 </r>
       <r>  -21.2711    1.0000 </r>
       <r>  -21.2711    1.0000 </r>
       <r>  -21.2711    1.0000 </r>
       <r>  -21.2709    1.0000 </r>
       <r>  -21.2706    1.0000 </r>
       <r>  -21.2700    1.0000 </r>
       <r>  -21.2698    1.0000 </r>
       <r>  -21.2695    1.0000 </r>
       <r>  -21.2694    1.0000 </r>
       <r>  -21.2668    1.0000 </r>
       <r>  -21.2668    1.0000 </r>
       <r>  -21.2661    1.0000 </r>
       <r>  -21.2506    1.0000 </r>
       <r>  -21.2503    1.0000 </r>
       <r>  -21.2501    1.0000 </r>
       <r>  -13.3581    1.0000 </r>
       <r>  -13.1432    1.0000 </r>
       <r>  -13.1380    1.0000 </r>
       <r>  -13.1374    1.0000 </r>
       <r>  -13.1373    1.0000 </r>
       <r>  -13.1368    1.0000 </r>
       <r>  -13.1330    1.0000 </r>
       <r>  -13.0231    1.0000 </r>
       <r>  -13.0145    1.0000 </r>
       <r>  -13.0126    1.0000 </r>
       <r>  -13.0116    1.0000 </r>
       <r>  -13.0114    1.0000 </r>
       <r>  -13.0112    1.0000 </r>
       <r>  -13.0112    1.0000 </r>
       <r>  -13.0111    1.0000 </r>
       <r>  -13.0111    1.0000 </r>
       <r>  -13.0102    1.0000 </r>
       <r>  -13.0087    1.0000 </r>
       <r>  -13.0044    1.0000 </r>
       <r>  -12.9900    1.0000 </r>
       <r>  -12.9896    1.0000 </r>
       <r>  -12.9891    1.0000 </r>
       <r>  -12.9873    1.0000 </r>
       <r>  -12.9414    1.0000 </r>
       <r>  -12.9410    1.0000 </r>
       <r>  -12.9405    1.0000 </r>
       <r>  -12.9260    1.0000 </r>
       <r>  -12.9218    1.0000 </r>
       <r>  -12.9214    1.0000 </r>
       <r>  -12.9213    1.0000 </r>
       <r>  -12.9202    1.0000 </r>
       <r>  -12.9122    1.0000 </r>
       <r>   -2.7001    1.0000 </r>
       <r>   -2.7000    1.0000 </r>
       <r>   -2.7000    1.0000 </r>
       <r>   -2.6999    1.0000 </r>
       <r>   -2.4241    1.0000 </r>
       <r>   -2.4240    1.0000 </r>
       <r>   -2.4240    1.0000 </r>
       <r>   -2.2079    1.0000 </r>
       <r>   -2.2072    1.0000 </r>
       <r>   -2.2052    1.0000 </r>
       <r>   -2.2050    1.0000 </r>
       <r>   -2.2044    1.0000 </r>
       <r>   -2.2043    1.0000 </r>
       <r>   -2.2042    1.0000 </r>
       <r>   -2.2041    1.0000 </r>
       <r>   -2.2035    1.0000 </r>
       <r>   -2.2033    1.0000 </r>
       <r>   -2.2014    1.0000 </r>
       <r>   -2.2008    1.0000 </r>
       <r>   -1.9285    1.0000 </r>
       <r>   -1.9278    1.0000 </r>
       <r>   -1.9263    1.0000 </r>
       <r>   -1.9259    1.0000 </r>
       <r>   -1.9248    1.0000 </r>
       <r>   -1.9247    1.0000 </r>
       <r>   -1.9246    1.0000 </r>
       <r>   -1.9246    1.0000 </r>
       <r>   -1.9235    1.0000 </r>
       <r>   -1.9231    1.0000 </r>
       <r>   -1.9217    1.0000 </r>
       <r>   -1.9209    1.0000 </r>
       <r>   -1.7976    1.0000 </r>
       <r>   -1.7969    1.0000 </r>
       <r>   -1.7966    1.0000 </r>
       <r>   -1.7966    1.0000 </r>
       <r>   -1.7964    1.0000 </r>
       <r>   -1.7956    1.0000 </r>
       <r>   -1.5089    1.0000 </r>
       <r>   -1.5085    1.0000 </r>
       <r>   -1.5064    1.0000 </r>
       <r>   -1.5059    1.0000 </r>
       <r>   -1.5059    1.0000 </r>
       <r>   -1.5057    1.0000 </r>
       <r>   -1.5054    1.0000 </r>
       <r>   -1.5052    1.0000 </r>
       <r>   -1.5047    1.0000 </r>
       <r>   -1.5041    1.0000 </r>
       <r>   -1.5024    1.0000 </r>
       <r>   -1.5022    1.0000 </r>
       <r>   -1.4644    1.0000 </r>
       <r>   -1.4631    1.0000 </r>
       <r>   -1.4627    1.0000 </r>
       <r>   -1.4623    1.0000 </r>
       <r>   -1.4622    1.0000 </r>
       <r>   -1.4611    1.0000 </r>
       <r>   -1.2947    1.0000 </r>
       <r>   -1.2947    1.0000 </r>
       <r>   -1.2947    1.0000 </r>
       <r>   -1.2946    1.0000 </r>
       <r>   -1.2946    1.0000 </r>
       <r>   -1.2945    1.0000 </r>
       <r>   -1.0065    1.0000 </r>
       <r>   -1.0042    1.0000 </r>
       <r>   -1.0038    1.0000 </r>
       <r>   -1.0019    1.0000 </r>
       <r>   -1.0009    1.0000 </r>
       <r>   -1.0008    1.0000 </r>
       <r>   -1.0008    1.0000 </r>
       <r>   -1.0007    1.0000 </r>
       <r>   -1.0006    1.0000 </r>
       <r>   -0.9986    1.0000 </r>
       <r>   -0.9982    1.0000 </r>
       <r>   -0.9954    1.0000 </r>
       <r>   -0.9534    1.0000 </r>
       <r>   -0.9529    1.0000 </r>
       <r>   -0.9512    1.0000 </r>
       <r>   -0.9511    1.0000 </r>
       <r>   -0.9491    1.0000 </r>
       <r>   -0.9484    1.0000 </r>
       <r>   -0.9479    1.0000 </r>
       <r>   -0.9476    1.0000 </r>
       <r>   -0.9475    1.0000 </r>
       <r>   -0.9474    1.0000 </r>
       <r>   -0.9472    1.0000 </r>
       <r>   -0.9468    1.0000 </r>
       <r>   -0.9458    1.0000 </r>
       <r>   -0.9458    1.0000 </r>
       <r>   -0.9456    1.0000 </r>
       <r>   -0.9453    1.0000 </r>
       <r>   -0.9437    1.0000 </r>
       <r>   -0.9405    1.0000 </r>
       <r>   -0.9400    1.0000 </r>
       <r>   -0.9375    1.0000 </r>
       <r>   -0.6648    1.0000 </r>
       <r>   -0.6648    1.0000 </r>
       <r>   -0.6647    1.0000 </r>
       <r>    4.3403    0.0000 </r>
       <r>    6.3595    0.0000 </r>
       <r>    6.3669    0.0000 </r>
       <r>    6.3679    0.0000 </r>
       <r>    6.3682    0.0000 </r>
       <r>    6.3691    0.0000 </r>
       <r>    6.3763    0.0000 </r>
       <r>    6.4446    0.0000 </r>
       <r>    6.4446    0.0000 </r>
       <r>    6.4448    0.0000 </r>
       <r>    6.4451    0.0000 </r>
       <r>    6.8279    0.0000 </r>
       <r>    6.8280    0.0000 </r>
       <r>    6.8280    0.0000 </r>
       <r>    7.2067    0.0000 </r>
       <r>    7.2068    0.0000 </r>
       <r>    7.2069    0.0000 </r>
       <r>    7.4530    0.0000 </r>
       <r>    7.4572    0.0000 </r>
       <r>    7.4590    0.0000 </r>
       <r>    7.4628    0.0000 </r>
       <r>    7.4635    0.0000 </r>
       <r>    7.4641    0.0000 </r>
       <r>    7.4642    0.0000 </r>
       <r>    7.4649    0.0000 </r>
       <r>    7.4656    0.0000 </r>
       <r>    7.4694    0.0000 </r>
       <r>    7.4712    0.0000 </r>
       <r>    7.4749    0.0000 </r>
       <r>    8.1618    0.0000 </r>
       <r>    8.1675    0.0000 </r>
       <r>    8.1681    0.0000 </r>
       <r>    8.1684    0.0000 </r>
       <r>    8.1691    0.0000 </r>
       <r>    8.1751    0.0000 </r>
       <r>    8.2775    0.0000 </r>
       <r>    8.2781    0.0000 </r>
       <r>    8.2795    0.0000 </r>
       <r>    8.2796    0.0000 </r>
       <r>    8.2811    0.0000 </r>
       <r>    8.2817    0.0000 </r>
       <r>    8.8891    0.0000 </r>
       <r>    8.8923    0.0000 </r>
       <r>    8.8966    0.0000 </r>
       <r>    8.8976    0.0000 </r>
       <r>    8.8994    0.0000 </r>
       <r>    8.9000    0.0000 </r>
       <r>    8.9005    0.0000 </r>
       <r>    8.9019    0.0000 </r>
       <r>    8.9032    0.0000 </r>
       <r>    8.9037    0.0000 </r>
       <r>    8.9043    0.0000 </r>
       <r>    8.9082    0.0000 </r>
       <r>    8.9092    0.0000 </r>
       <r>    8.9121    0.0000 </r>
       <r>    8.9135    0.0000 </r>
       <r>    8.9152    0.0000 </r>
       <r>    8.9163    0.0000 </r>
       <r>    8.9169    0.0000 </r>
       <r>    8.9177    0.0000 </r>
       <r>    8.9189    0.0000 </r>
       <r>    8.9215    0.0000 </r>
       <r>    8.9272    0.0000 </r>
       <r>    8.9302    0.0000 </r>
      </set>
      <set comment="kpoint 2">
       <r>  -21.3069    1.0000 </r>
       <r>  -21.3067    1.0000 </r>
       <r>  -21.3064    1.0000 </r>
       <r>  -21.3023    1.0000 </r>
       <r>  -21.3019    1.0000 </r>
       <r>  -21.3004    1.0000 </r>
       <r>  -21.3004    1.0000 </r>
       <r>  -21.2986    1.0000 </r>
       <r>  -21.2961    1.0000 </r>
       <r>  -21.2941    1.0000 </r>
       <r>  -21.2936    1.0000 </r>
       <r>  -21.2934    1.0000 </r>
       <r>  -21.2932    1.0000 </r>
       <r>  -21.2932    1.0000 </r>
       <r>  -21.2928    1.0000 </r>
       <r>  -21.2924    1.0000 </r>
       <r>  -21.2923    1.0000 </r>
       <r>  -21.2919    1.0000 </r>
       <r>  -21.2918    1.0000 </r>
       <r>  -21.2916    1.0000 </r>
       <r>  -21.2913    1.0000 </r>
       <r>  -21.2912    1.0000 </r>
       <r>  -21.2888    1.0000 </r>
       <r>  -21.2885    1.0000 </r>
       <r>  -21.2881    1.0000 </r>
       <r>  -21.2880    1.0000 </r>
       <r>  -21.2873    1.0000 </r>
       <r>  -21.2872    1.0000 </r>
       <r>  -21.2869    1.0000 </r>
       <r>  -21.2864    1.0000 </r>
       <r>  -21.2864    1.0000 </r>
       <r>  -21.2862    1.0000 </r>
       <r>  -21.2860    1.0000 </r>
       <r>  -21.2859    1.0000 </r>
       <r>  -21.2841    1.0000 </r>
       <r>  -21.2834    1.0000 </r>
       <r>  -21.2833    1.0000 </r>
       <r>  -21.2831    1.0000 </r>
       <r>  -21.2826    1.0000 </r>
       <r>  -21.2825    1.0000 </r>
       <r>  -21.2823    1.0000 </r>
       <r>  -21.2820    1.0000 </r>
       <r>  -21.2814    1.0000 </r>
       <r>  -21.2811    1.0000 </r>
       <r>  -21.2806    1.0000 </r>
       <r>  -21.2800    1.0000 </r>
       <r>  -21.2799    1.0000 </r>
       <r>  -21.2797    1.0000 </r>
       <r>  -21.2786    1.0000 </r>
       <r>  -21.2781    1.0000 </r>
       <r>  -21.2780    1.0000 </r>
       <r>  -21.2778    1.0000 </r>
       <r>  -21.2777    1.0000 </r>
       <r>  -21.2776    1.0000 </r>
       <r>  -21.2775    1.0000 </r>
       <r>  -21.2773    1.0000 </r>
       <r>  -21.2772    1.0000 </r>
       <r>  -21.2769    1.0000 </r>
       <r>  -21.2765    1.0000 </r>
       <r>  -21.2764    1.0000 </r>
       <r>  -21.2764    1.0000 </r>
       <r>  -21.2760    1.0000 </r>
       <r>  -21.2759    1.0000 </r>
       <r>  -21.2757    1.0000 </r>
       <r>  -21.2756    1.0000 </r>
       <r>  -21.2752    1.0000 </r>
       <r>  -21.2751    1.0000 </r>
       <r>  -21.2748    1.0000 </r>
       <r>  -21.2747    1.0000 </r>
       <r>  -21.2747    1.0000 </r>
       <r>  -21.2746    1.0000 </r>
       <r>  -21.2742    1.0000 </r>
       <r>  -21.2742    1.0000 </r>
       <r>  -21.2735    1.0000 </r>
       <r>  -21.2733    1.0000 </r>
       <r>  -21.2732    1.0000 </r>
       <r>  -21.2731    1.0000 </r>
       <r>  -21.2725    1.0000 </r>
       <r>  -21.2719    1.0000 </r>
       <r>  -21.2718    1.0000 </r>
       <r>  -21.2716    1.0000 </r>
       <r>  -21.2715    1.0000 </r>
       <r>  -21.2714    1.0000 </r>
       <r>  -21.2712    1.0000 </r>
       <r>  -21.2712    1.0000 </r>
       <r>  -21.2709    1.0000 </r>
       <r>  -21.2707    1.0000 </r>
       <r>  -21.2701    1.0000 </r>
       <r>  -21.2700    1.0000 </r>
       <r>  -21.2697    1.0000 </r>
       <r>  -21.2676    1.0000 </r>
       <r>  -21.2670    1.0000 </r>
       <r>  -21.2663    1.0000 </r>
       <r>  -21.2507    1.0000 </r>
       <r>  -21.2503    1.0000 </r>
       <r>  -21.2501    1.0000 </r>
       <r>  -13.2938    1.0000 </r>
       <r>  -13.2889    1.0000 </r>
       <r>  -13.1047    1.0000 </r>
       <r>  -13.0988    1.0000 </r>
       <r>  -13.0982    1.0000 </r>
       <r>  -13.0970    1.0000 </r>
       <r>  -13.0966    1.0000 </r>
       <r>  -13.0955    1.0000 </r>
       <r>  -13.0952    1.0000 </r>
       <r>  -13.0914    1.0000 </r>
       <r>  -13.0091    1.0000 </r>
       <r>  -13.0034    1.0000 </r>
       <r>  -13.0015    1.0000 </r>
       <r>  -13.0012    1.0000 </r>
       <r>  -13.0006    1.0000 </r>
       <r>  -13.0006    1.0000 </r>
       <r>  -12.9976    1.0000 </r>
       <r>  -12.9965    1.0000 </r>
       <r>  -12.9964    1.0000 </r>
       <r>  -12.9916    1.0000 </r>
       <r>  -12.9507    1.0000 </r>
       <r>  -12.9456    1.0000 </r>
       <r>  -12.9451    1.0000 </r>
       <r>  -12.9444    1.0000 </r>
       <r>  -12.9435    1.0000 </r>
       <r>  -12.9423    1.0000 </r>
       <r>  -12.9416    1.0000 </r>
       <r>  -12.9387    1.0000 </r>
       <r>  -12.9350    1.0000 </r>
       <r>  -12.9308    1.0000 </r>
       <r>  -12.9307    1.0000 </r>
       <r>  -12.9202    1.0000 </r>
       <r>   -2.5081    1.0000 </r>
       <r>   -2.5081    1.0000 </r>
       <r>   -2.5065    1.0000 </r>
       <r>   -2.5051    1.0000 </r>
       <r>   -2.5035    1.0000 </r>
       <r>   -2.5024    1.0000 </r>
       <r>   -2.5007    1.0000 </r>
       <r>   -2.5007    1.0000 </r>
       <r>   -2.2902    1.0000 </r>
       <r>   -2.2901    1.0000 </r>
       <r>   -2.2853    1.0000 </r>
       <r>   -2.2852    1.0000 </r>
       <r>   -2.2768    1.0000 </r>
       <r>   -2.2716    1.0000 </r>
       <r>   -2.1417    1.0000 </r>
       <r>   -2.1379    1.0000 </r>
       <r>   -2.1366    1.0000 </r>
       <r>   -2.1363    1.0000 </r>
       <r>   -2.1363    1.0000 </r>
       <r>   -2.1358    1.0000 </r>
       <r>   -2.1358    1.0000 </r>
       <r>   -2.1311    1.0000 </r>
       <r>   -1.9879    1.0000 </r>
       <r>   -1.9877    1.0000 </r>
       <r>   -1.9859    1.0000 </r>
       <r>   -1.9854    1.0000 </r>
       <r>   -1.9852    1.0000 </r>
       <r>   -1.9849    1.0000 </r>
       <r>   -1.9832    1.0000 </r>
       <r>   -1.9831    1.0000 </r>
       <r>   -1.8122    1.0000 </r>
       <r>   -1.8122    1.0000 </r>
       <r>   -1.8105    1.0000 </r>
       <r>   -1.8101    1.0000 </r>
       <r>   -1.8099    1.0000 </r>
       <r>   -1.8071    1.0000 </r>
       <r>   -1.8053    1.0000 </r>
       <r>   -1.8028    1.0000 </r>
       <r>   -1.5001    1.0000 </r>
       <r>   -1.5000    1.0000 </r>
       <r>   -1.4955    1.0000 </r>
       <r>   -1.4955    1.0000 </r>
       <r>   -1.3859    1.0000 </r>
       <r>   -1.3805    1.0000 </r>
       <r>   -1.3804    1.0000 </r>
       <r>   -1.3752    1.0000 </r>
       <r>   -1.2151    1.0000 </r>
       <r>   -1.2149    1.0000 </r>
       <r>   -1.2111    1.0000 </r>
       <r>   -1.2101    1.0000 </r>
       <r>   -1.1935    1.0000 </r>
       <r>   -1.1929    1.0000 </r>
       <r>   -1.1926    1.0000 </r>
       <r>   -1.1919    1.0000 </r>
       <r>   -1.1909    1.0000 </r>
       <r>   -1.1906    1.0000 </r>
       <r>   -1.1898    1.0000 </r>
       <r>   -1.1881    1.0000 </r>
       <r>   -1.1799    1.0000 </r>
       <r>   -1.1772    1.0000 </r>
       <r>   -1.1760    1.0000 </r>
       <r>   -1.1754    1.0000 </r>
       <r>   -1.1737    1.0000 </r>
       <r>   -1.1729    1.0000 </r>
       <r>   -1.1715    1.0000 </r>
       <r>   -1.1669    1.0000 </r>
       <r>   -1.1625    1.0000 </r>
       <r>   -1.1623    1.0000 </r>
       <r>   -1.1611    1.0000 </r>
       <r>   -1.1600    1.0000 </r>
       <r>   -1.1600    1.0000 </r>
       <r>   -1.1582    1.0000 </r>
       <r>   -1.1557    1.0000 </r>
       <r>   -1.1542    1.0000 </r>
       <r>   -1.0855    1.0000 </r>
       <r>   -1.0809    1.0000 </r>
       <r>   -0.9518    1.0000 </r>
       <r>   -0.9517    1.0000 </r>
       <r>   -0.9472    1.0000 </r>
       <r>   -0.9470    1.0000 </r>
       <r>   -0.9468    1.0000 </r>
       <r>   -0.9468    1.0000 </r>
       <r>   -0.9425    1.0000 </r>
       <r>   -0.9416    1.0000 </r>
       <r>   -0.9385    1.0000 </r>
       <r>   -0.9344    1.0000 </r>
       <r>   -0.9330    1.0000 </r>
       <r>   -0.9323    1.0000 </r>
       <r>   -0.9317    1.0000 </r>
       <r>   -0.9310    1.0000 </r>
       <r>   -0.9307    1.0000 </r>
       <r>   -0.9250    1.0000 </r>
       <r>   -0.7707    1.0000 </r>
       <r>   -0.7707    1.0000 </r>
       <r>   -0.7658    1.0000 </r>
       <r>   -0.7657    1.0000 </r>
       <r>    5.0205    0.0000 </r>
       <r>    5.0241    0.0000 </r>
       <r>    6.7108    0.0000 </r>
       <r>    6.7143    0.0000 </r>
       <r>    6.7165    0.0000 </r>
       <r>    6.7166    0.0000 </r>
       <r>    6.7188    0.0000 </r>
       <r>    6.7192    0.0000 </r>
       <r>    6.7202    0.0000 </r>
       <r>    6.7280    0.0000 </r>
       <r>    6.8397    0.0000 </r>
       <r>    6.8399    0.0000 </r>
       <r>    6.8400    0.0000 </r>
       <r>    6.8403    0.0000 </r>
       <r>    6.8446    0.0000 </r>
       <r>    6.8451    0.0000 </r>
       <r>    6.8483    0.0000 </r>
       <r>    6.8486    0.0000 </r>
       <r>    6.9696    0.0000 </r>
       <r>    6.9728    0.0000 </r>
       <r>    7.3591    0.0000 </r>
       <r>    7.3623    0.0000 </r>
       <r>    7.3627    0.0000 </r>
       <r>    7.3661    0.0000 </r>
       <r>    7.4774    0.0000 </r>
       <r>    7.4830    0.0000 </r>
       <r>    7.7116    0.0000 </r>
       <r>    7.7116    0.0000 </r>
       <r>    7.7175    0.0000 </r>
       <r>    7.7176    0.0000 </r>
       <r>    8.2608    0.0000 </r>
       <r>    8.2622    0.0000 </r>
       <r>    8.2637    0.0000 </r>
       <r>    8.2640    0.0000 </r>
       <r>    8.2663    0.0000 </r>
       <r>    8.2673    0.0000 </r>
       <r>    8.2682    0.0000 </r>
       <r>    8.2746    0.0000 </r>
       <r>    8.5292    0.0000 </r>
       <r>    8.5313    0.0000 </r>
       <r>    8.5322    0.0000 </r>
       <r>    8.5349    0.0000 </r>
       <r>    8.5362    0.0000 </r>
       <r>    8.5368    0.0000 </r>
       <r>    8.5370    0.0000 </r>
       <r>    8.5377    0.0000 </r>
       <r>    8.5384    0.0000 </r>
       <r>    8.5385    0.0000 </r>
       <r>    8.5402    0.0000 </r>
       <r>    8.5415    0.0000 </r>
       <r>    8.5426    0.0000 </r>
       <r>    8.5442    0.0000 </r>
       <r>    8.5459    0.0000 </r>
       <r>    8.5494    0.0000 </r>
       <r>    8.9441    0.0000 </r>
       <r>    8.9459    0.0000 </r>
       <r>    8.9485    0.0000 </r>
       <r>    8.9485    0.0000 </r>
       <r>    8.9502    0.0000 </r>
       <r>    8.9533    0.0000 </r>
       <r>    8.9537    0.0000 </r>
       <r>    8.9631    0.0000 </r>
       <r>    9.4862    0.0000 </r>
       <r>    9.4980    0.0000 </r>
      </set>
      <set comment="kpoint 3">
       <r>  -21.3075    1.0000 </r>
       <r>  -21.3073    1.0000 </r>
       <r>  -21.3065    1.0000 </r>
       <r>  -21.3002    1.0000 </r>
       <r>  -21.2997    1.0000 </r>
       <r>  -21.2990    1.0000 </r>
       <r>  -21.2989    1.0000 </r>
       <r>  -21.2986    1.0000 </r>
       <r>  -21.2984    1.0000 </r>
       <r>  -21.2974    1.0000 </r>
       <r>  -21.2973    1.0000 </r>
       <r>  -21.2936    1.0000 </r>
       <r>  -21.2932    1.0000 </r>
       <r>  -21.2925    1.0000 </r>
       <r>  -21.2922    1.0000 </r>
       <r>  -21.2920    1.0000 </r>
       <r>  -21.2918    1.0000 </r>
       <r>  -21.2915    1.0000 </r>
       <r>  -21.2915    1.0000 </r>
       <r>  -21.2915    1.0000 </r>
       <r>  -21.2909    1.0000 </r>
       <r>  -21.2902    1.0000 </r>
       <r>  -21.2900    1.0000 </r>
       <r>  -21.2891    1.0000 </r>
       <r>  -21.2881    1.0000 </r>
       <r>  -21.2880    1.0000 </r>
       <r>  -21.2876    1.0000 </r>
       <r>  -21.2875    1.0000 </r>
       <r>  -21.2873    1.0000 </r>
       <r>  -21.2862    1.0000 </r>
       <r>  -21.2857    1.0000 </r>
       <r>  -21.2857    1.0000 </r>
       <r>  -21.2856    1.0000 </r>
       <r>  -21.2853    1.0000 </r>
       <r>  -21.2846    1.0000 </r>
       <r>  -21.2833    1.0000 </r>
       <r>  -21.2830    1.0000 </r>
       <r>  -21.2828    1.0000 </r>
       <r>  -21.2827    1.0000 </r>
       <r>  -21.2824    1.0000 </r>
       <r>  -21.2822    1.0000 </r>
       <r>  -21.2816    1.0000 </r>
       <r>  -21.2810    1.0000 </r>
       <r>  -21.2810    1.0000 </r>
       <r>  -21.2804    1.0000 </r>
       <r>  -21.2804    1.0000 </r>
       <r>  -21.2800    1.0000 </r>
       <r>  -21.2795    1.0000 </r>
       <r>  -21.2788    1.0000 </r>
       <r>  -21.2788    1.0000 </r>
       <r>  -21.2780    1.0000 </r>
       <r>  -21.2779    1.0000 </r>
       <r>  -21.2778    1.0000 </r>
       <r>  -21.2775    1.0000 </r>
       <r>  -21.2773    1.0000 </r>
       <r>  -21.2772    1.0000 </r>
       <r>  -21.2770    1.0000 </r>
       <r>  -21.2769    1.0000 </r>
       <r>  -21.2767    1.0000 </r>
       <r>  -21.2767    1.0000 </r>
       <r>  -21.2764    1.0000 </r>
       <r>  -21.2758    1.0000 </r>
       <r>  -21.2756    1.0000 </r>
       <r>  -21.2756    1.0000 </r>
       <r>  -21.2756    1.0000 </r>
       <r>  -21.2752    1.0000 </r>
       <r>  -21.2750    1.0000 </r>
       <r>  -21.2749    1.0000 </r>
       <r>  -21.2748    1.0000 </r>
       <r>  -21.2748    1.0000 </r>
       <r>  -21.2745    1.0000 </r>
       <r>  -21.2743    1.0000 </r>
       <r>  -21.2740    1.0000 </r>
       <r>  -21.2735    1.0000 </r>
       <r>  -21.2731    1.0000 </r>
       <r>  -21.2729    1.0000 </r>
       <r>  -21.2728    1.0000 </r>
       <r>  -21.2727    1.0000 </r>
       <r>  -21.2725    1.0000 </r>
       <r>  -21.2724    1.0000 </r>
       <r>  -21.2722    1.0000 </r>
       <r>  -21.2722    1.0000 </r>
       <r>  -21.2720    1.0000 </r>
       <r>  -21.2713    1.0000 </r>
       <r>  -21.2708    1.0000 </r>
       <r>  -21.2706    1.0000 </r>
       <r>  -21.2701    1.0000 </r>
       <r>  -21.2701    1.0000 </r>
       <r>  -21.2699    1.0000 </r>
       <r>  -21.2696    1.0000 </r>
       <r>  -21.2673    1.0000 </r>
       <r>  -21.2670    1.0000 </r>
       <r>  -21.2662    1.0000 </r>
       <r>  -21.2507    1.0000 </r>
       <r>  -21.2504    1.0000 </r>
       <r>  -21.2501    1.0000 </r>
       <r>  -13.2930    1.0000 </r>
       <r>  -13.2898    1.0000 </r>
       <r>  -13.1023    1.0000 </r>
       <r>  -13.0991    1.0000 </r>
       <r>  -13.0991    1.0000 </r>
       <r>  -13.0991    1.0000 </r>
       <r>  -13.0982    1.0000 </r>
       <r>  -13.0952    1.0000 </r>
       <r>  -13.0946    1.0000 </r>
       <r>  -13.0898    1.0000 </r>
       <r>  -13.0051    1.0000 </r>
       <r>  -13.0051    1.0000 </r>
       <r>  -13.0026    1.0000 </r>
       <r>  -13.0008    1.0000 </r>
       <r>  -13.0006    1.0000 </r>
       <r>  -13.0006    1.0000 </r>
       <r>  -13.0004    1.0000 </r>
       <r>  -12.9980    1.0000 </r>
       <r>  -12.9961    1.0000 </r>
       <r>  -12.9894    1.0000 </r>
       <r>  -12.9473    1.0000 </r>
       <r>  -12.9466    1.0000 </r>
       <r>  -12.9462    1.0000 </r>
       <r>  -12.9459    1.0000 </r>
       <r>  -12.9459    1.0000 </r>
       <r>  -12.9414    1.0000 </r>
       <r>  -12.9411    1.0000 </r>
       <r>  -12.9364    1.0000 </r>
       <r>  -12.9353    1.0000 </r>
       <r>  -12.9311    1.0000 </r>
       <r>  -12.9309    1.0000 </r>
       <r>  -12.9203    1.0000 </r>
       <r>   -2.5074    1.0000 </r>
       <r>   -2.5067    1.0000 </r>
       <r>   -2.5046    1.0000 </r>
       <r>   -2.5046    1.0000 </r>
       <r>   -2.5042    1.0000 </r>
       <r>   -2.5040    1.0000 </r>
       <r>   -2.5022    1.0000 </r>
       <r>   -2.5014    1.0000 </r>
       <r>   -2.2890    1.0000 </r>
       <r>   -2.2890    1.0000 </r>
       <r>   -2.2864    1.0000 </r>
       <r>   -2.2863    1.0000 </r>
       <r>   -2.2761    1.0000 </r>
       <r>   -2.2723    1.0000 </r>
       <r>   -2.1402    1.0000 </r>
       <r>   -2.1391    1.0000 </r>
       <r>   -2.1371    1.0000 </r>
       <r>   -2.1367    1.0000 </r>
       <r>   -2.1362    1.0000 </r>
       <r>   -2.1361    1.0000 </r>
       <r>   -2.1348    1.0000 </r>
       <r>   -2.1311    1.0000 </r>
       <r>   -1.9879    1.0000 </r>
       <r>   -1.9866    1.0000 </r>
       <r>   -1.9866    1.0000 </r>
       <r>   -1.9856    1.0000 </r>
       <r>   -1.9852    1.0000 </r>
       <r>   -1.9846    1.0000 </r>
       <r>   -1.9844    1.0000 </r>
       <r>   -1.9829    1.0000 </r>
       <r>   -1.8109    1.0000 </r>
       <r>   -1.8108    1.0000 </r>
       <r>   -1.8097    1.0000 </r>
       <r>   -1.8097    1.0000 </r>
       <r>   -1.8085    1.0000 </r>
       <r>   -1.8079    1.0000 </r>
       <r>   -1.8065    1.0000 </r>
       <r>   -1.8060    1.0000 </r>
       <r>   -1.5009    1.0000 </r>
       <r>   -1.5009    1.0000 </r>
       <r>   -1.4946    1.0000 </r>
       <r>   -1.4946    1.0000 </r>
       <r>   -1.3844    1.0000 </r>
       <r>   -1.3808    1.0000 </r>
       <r>   -1.3800    1.0000 </r>
       <r>   -1.3767    1.0000 </r>
       <r>   -1.2140    1.0000 </r>
       <r>   -1.2140    1.0000 </r>
       <r>   -1.2122    1.0000 </r>
       <r>   -1.2111    1.0000 </r>
       <r>   -1.1954    1.0000 </r>
       <r>   -1.1931    1.0000 </r>
       <r>   -1.1917    1.0000 </r>
       <r>   -1.1913    1.0000 </r>
       <r>   -1.1912    1.0000 </r>
       <r>   -1.1910    1.0000 </r>
       <r>   -1.1909    1.0000 </r>
       <r>   -1.1886    1.0000 </r>
       <r>   -1.1784    1.0000 </r>
       <r>   -1.1780    1.0000 </r>
       <r>   -1.1762    1.0000 </r>
       <r>   -1.1754    1.0000 </r>
       <r>   -1.1746    1.0000 </r>
       <r>   -1.1703    1.0000 </r>
       <r>   -1.1697    1.0000 </r>
       <r>   -1.1687    1.0000 </r>
       <r>   -1.1634    1.0000 </r>
       <r>   -1.1633    1.0000 </r>
       <r>   -1.1618    1.0000 </r>
       <r>   -1.1617    1.0000 </r>
       <r>   -1.1579    1.0000 </r>
       <r>   -1.1553    1.0000 </r>
       <r>   -1.1548    1.0000 </r>
       <r>   -1.1541    1.0000 </r>
       <r>   -1.0857    1.0000 </r>
       <r>   -1.0807    1.0000 </r>
       <r>   -0.9516    1.0000 </r>
       <r>   -0.9511    1.0000 </r>
       <r>   -0.9469    1.0000 </r>
       <r>   -0.9469    1.0000 </r>
       <r>   -0.9469    1.0000 </r>
       <r>   -0.9468    1.0000 </r>
       <r>   -0.9436    1.0000 </r>
       <r>   -0.9421    1.0000 </r>
       <r>   -0.9351    1.0000 </r>
       <r>   -0.9341    1.0000 </r>
       <r>   -0.9340    1.0000 </r>
       <r>   -0.9338    1.0000 </r>
       <r>   -0.9319    1.0000 </r>
       <r>   -0.9310    1.0000 </r>
       <r>   -0.9307    1.0000 </r>
       <r>   -0.9259    1.0000 </r>
       <r>   -0.7712    1.0000 </r>
       <r>   -0.7712    1.0000 </r>
       <r>   -0.7652    1.0000 </r>
       <r>   -0.7650    1.0000 </r>
       <r>    5.0188    0.0000 </r>
       <r>    5.0259    0.0000 </r>
       <r>    6.7098    0.0000 </r>
       <r>    6.7145    0.0000 </r>
       <r>    6.7145    0.0000 </r>
       <r>    6.7171    0.0000 </r>
       <r>    6.7179    0.0000 </r>
       <r>    6.7218    0.0000 </r>
       <r>    6.7222    0.0000 </r>
       <r>    6.7271    0.0000 </r>
       <r>    6.8385    0.0000 </r>
       <r>    6.8386    0.0000 </r>
       <r>    6.8401    0.0000 </r>
       <r>    6.8427    0.0000 </r>
       <r>    6.8437    0.0000 </r>
       <r>    6.8460    0.0000 </r>
       <r>    6.8481    0.0000 </r>
       <r>    6.8485    0.0000 </r>
       <r>    6.9683    0.0000 </r>
       <r>    6.9741    0.0000 </r>
       <r>    7.3562    0.0000 </r>
       <r>    7.3626    0.0000 </r>
       <r>    7.3626    0.0000 </r>
       <r>    7.3689    0.0000 </r>
       <r>    7.4789    0.0000 </r>
       <r>    7.4816    0.0000 </r>
       <r>    7.7110    0.0000 </r>
       <r>    7.7110    0.0000 </r>
       <r>    7.7181    0.0000 </r>
       <r>    7.7182    0.0000 </r>
       <r>    8.2558    0.0000 </r>
       <r>    8.2634    0.0000 </r>
       <r>    8.2637    0.0000 </r>
       <r>    8.2648    0.0000 </r>
       <r>    8.2655    0.0000 </r>
       <r>    8.2680    0.0000 </r>
       <r>    8.2692    0.0000 </r>
       <r>    8.2757    0.0000 </r>
       <r>    8.5283    0.0000 </r>
       <r>    8.5285    0.0000 </r>
       <r>    8.5314    0.0000 </r>
       <r>    8.5362    0.0000 </r>
       <r>    8.5366    0.0000 </r>
       <r>    8.5369    0.0000 </r>
       <r>    8.5376    0.0000 </r>
       <r>    8.5379    0.0000 </r>
       <r>    8.5383    0.0000 </r>
       <r>    8.5393    0.0000 </r>
       <r>    8.5396    0.0000 </r>
       <r>    8.5406    0.0000 </r>
       <r>    8.5415    0.0000 </r>
       <r>    8.5461    0.0000 </r>
       <r>    8.5487    0.0000 </r>
       <r>    8.5493    0.0000 </r>
       <r>    8.9466    0.0000 </r>
       <r>    8.9468    0.0000 </r>
       <r>    8.9471    0.0000 </r>
       <r>    8.9492    0.0000 </r>
       <r>    8.9507    0.0000 </r>
       <r>    8.9519    0.0000 </r>
       <r>    8.9553    0.0000 </r>
       <r>    8.9601    0.0000 </r>
       <r>    9.4925    0.0000 </r>
       <r>    9.5003    0.0000 </r>
      </set>
      <set comment="kpoint 4">
       <r>  -21.3073    1.0000 </r>
       <r>  -21.3067    1.0000 </r>
       <r>  -21.3067    1.0000 </r>
       <r>  -21.3007    1.0000 </r>
       <r>  -21.3002    1.0000 </r>
       <r>  -21.2999    1.0000 </r>
       <r>  -21.2998    1.0000 </r>
       <r>  -21.2993    1.0000 </r>
       <r>  -21.2982    1.0000 </r>
       <r>  -21.2974    1.0000 </r>
       <r>  -21.2949    1.0000 </r>
       <r>  -21.2940    1.0000 </r>
       <r>  -21.2929    1.0000 </r>
       <r>  -21.2927    1.0000 </r>
       <r>  -21.2924    1.0000 </r>
       <r>  -21.2924    1.0000 </r>
       <r>  -21.2919    1.0000 </r>
       <r>  -21.2915    1.0000 </r>
       <r>  -21.2914    1.0000 </r>
       <r>  -21.2912    1.0000 </r>
       <r>  -21.2904    1.0000 </r>
       <r>  -21.2897    1.0000 </r>
       <r>  -21.2895    1.0000 </r>
       <r>  -21.2892    1.0000 </r>
       <r>  -21.2889    1.0000 </r>
       <r>  -21.2886    1.0000 </r>
       <r>  -21.2884    1.0000 </r>
       <r>  -21.2884    1.0000 </r>
       <r>  -21.2872    1.0000 </r>
       <r>  -21.2859    1.0000 </r>
       <r>  -21.2848    1.0000 </r>
       <r>  -21.2842    1.0000 </r>
[...]
      </set>
     </set>
    </set>
   </array>
  </eigenvalues>
  <separator name="orbital magnetization" >
   <v name="MAGDIPOLOUT">      0.00000000      0.00000000      0.00000000</v>
  </separator>
  <dos>
   <i name="efermi">     -0.56644011 </i>
   <total>
    <array>
     <dimension dim="1">gridpoints</dimension>
     <dimension dim="2">spin</dimension>
     <field>energy</field>
     <field>total</field>
     <field>integrated</field>
     <set>
      <set comment="spin 1">
       <r>   -22.8488     0.0000     0.0000 </r>
       <r>   -22.7358     0.0000     0.0000 </r>
       <r>   -22.6229     0.0000     0.0000 </r>
       <r>   -22.5099     0.0000     0.0000 </r>
       <r>   -22.3969     0.0000     0.0000 </r>
       <r>   -22.2840     0.0000     0.0000 </r>
       <r>   -22.1710     0.0000     0.0000 </r>
       <r>   -22.0580     0.0000     0.0000 </r>
       <r>   -21.9451     0.0000     0.0000 </r>
       <r>   -21.8321     0.0000     0.0000 </r>
       <r>   -21.7191     0.0000     0.0000 </r>
       <r>   -21.6062     0.0000     0.0000 </r>
       <r>   -21.4932     0.0000     0.0000 </r>
       <r>   -21.3802     0.0000     0.0000 </r>
       <r>   -21.2673  1330.0869   150.2533 </r>
       <r>   -21.1543   369.5541   192.0000 </r>
       <r>   -21.0414     0.0000   192.0000 </r>
       <r>   -20.9284     0.0000   192.0000 </r>
       <r>   -20.8154     0.0000   192.0000 </r>
       <r>   -20.7025     0.0000   192.0000 </r>
       <r>   -20.5895     0.0000   192.0000 </r>
       <r>   -20.4765     0.0000   192.0000 </r>
       <r>   -20.3636     0.0000   192.0000 </r>
       <r>   -20.2506     0.0000   192.0000 </r>
       <r>   -20.1376     0.0000   192.0000 </r>
       <r>   -20.0247     0.0000   192.0000 </r>
       <r>   -19.9117     0.0000   192.0000 </r>
       <r>   -19.7987     0.0000   192.0000 </r>
       <r>   -19.6858     0.0000   192.0000 </r>
       <r>   -19.5728     0.0000   192.0000 </r>
       <r>   -19.4598     0.0000   192.0000 </r>
       <r>   -19.3469     0.0000   192.0000 </r>
       <r>   -19.2339     0.0000   192.0000 </r>
       <r>   -19.1209     0.0000   192.0000 </r>
       <r>   -19.0080     0.0000   192.0000 </r>
       <r>   -18.8950     0.0000   192.0000 </r>
       <r>   -18.7821     0.0000   192.0000 </r>
       <r>   -18.6691     0.0000   192.0000 </r>
       <r>   -18.5561     0.0000   192.0000 </r>
       <r>   -18.4432     0.0000   192.0000 </r>
       <r>   -18.3302     0.0000   192.0000 </r>
       <r>   -18.2172     0.0000   192.0000 </r>
       <r>   -18.1043     0.0000   192.0000 </r>
       <r>   -17.9913     0.0000   192.0000 </r>
       <r>   -17.8783     0.0000   192.0000 </r>
       <r>   -17.7654     0.0000   192.0000 </r>
       <r>   -17.6524     0.0000   192.0000 </r>
       <r>   -17.5394     0.0000   192.0000 </r>
       <r>   -17.4265     0.0000   192.0000 </r>
       <r>   -17.3135     0.0000   192.0000 </r>
       <r>   -17.2005     0.0000   192.0000 </r>
       <r>   -17.0876     0.0000   192.0000 </r>
       <r>   -16.9746     0.0000   192.0000 </r>
       <r>   -16.8616     0.0000   192.0000 </r>
       <r>   -16.7487     0.0000   192.0000 </r>
       <r>   -16.6357     0.0000   192.0000 </r>
       <r>   -16.5228     0.0000   192.0000 </r>
       <r>   -16.4098     0.0000   192.0000 </r>
       <r>   -16.2968     0.0000   192.0000 </r>
       <r>   -16.1839     0.0000   192.0000 </r>
       <r>   -16.0709     0.0000   192.0000 </r>
       <r>   -15.9579     0.0000   192.0000 </r>
       <r>   -15.8450     0.0000   192.0000 </r>
       <r>   -15.7320     0.0000   192.0000 </r>
       <r>   -15.6190     0.0000   192.0000 </r>
       <r>   -15.5061     0.0000   192.0000 </r>
       <r>   -15.3931     0.0000   192.0000 </r>
       <r>   -15.2801     0.0000   192.0000 </r>
       <r>   -15.1672     0.0000   192.0000 </r>
       <r>   -15.0542     0.0000   192.0000 </r>
       <r>   -14.9412     0.0000   192.0000 </r>
       <r>   -14.8283     0.0000   192.0000 </r>
       <r>   -14.7153     0.0000   192.0000 </r>
       <r>   -14.6023     0.0000   192.0000 </r>
       <r>   -14.4894     0.0000   192.0000 </r>
       <r>   -14.3764     0.0000   192.0000 </r>
       <r>   -14.2635     0.0000   192.0000 </r>
       <r>   -14.1505     0.0000   192.0000 </r>
       <r>   -14.0375     0.0000   192.0000 </r>
       <r>   -13.9246     0.0000   192.0000 </r>
       <r>   -13.8116     0.0000   192.0000 </r>
       <r>   -13.6986     0.0000   192.0000 </r>
       <r>   -13.5857     0.0000   192.0000 </r>
       <r>   -13.4727     0.0000   192.0000 </r>
       <r>   -13.3597     1.0050   192.1135 </r>
       <r>   -13.2468    18.4682   194.1998 </r>
       <r>   -13.1338    48.6072   199.6908 </r>
       <r>   -13.0208   123.5613   213.6493 </r>
       <r>   -12.9079   367.7543   255.1930 </r>
       <r>   -12.7949     7.1348   256.0000 </r>
       <r>   -12.6819     0.0000   256.0000 </r>
       <r>   -12.5690     0.0000   256.0000 </r>
       <r>   -12.4560     0.0000   256.0000 </r>
       <r>   -12.3430     0.0000   256.0000 </r>
       <r>   -12.2301     0.0000   256.0000 </r>
       <r>   -12.1171     0.0000   256.0000 </r>
       <r>   -12.0041     0.0000   256.0000 </r>
       <r>   -11.8912     0.0000   256.0000 </r>
       <r>   -11.7782     0.0000   256.0000 </r>
       <r>   -11.6653     0.0000   256.0000 </r>
       <r>   -11.5523     0.0000   256.0000 </r>
       <r>   -11.4393     0.0000   256.0000 </r>
       <r>   -11.3264     0.0000   256.0000 </r>
       <r>   -11.2134     0.0000   256.0000 </r>
       <r>   -11.1004     0.0000   256.0000 </r>
       <r>   -10.9875     0.0000   256.0000 </r>
       <r>   -10.8745     0.0000   256.0000 </r>
       <r>   -10.7615     0.0000   256.0000 </r>
       <r>   -10.6486     0.0000   256.0000 </r>
       <r>   -10.5356     0.0000   256.0000 </r>
       <r>   -10.4226     0.0000   256.0000 </r>
       <r>   -10.3097     0.0000   256.0000 </r>
       <r>   -10.1967     0.0000   256.0000 </r>
       <r>   -10.0837     0.0000   256.0000 </r>
       <r>    -9.9708     0.0000   256.0000 </r>
       <r>    -9.8578     0.0000   256.0000 </r>
       <r>    -9.7448     0.0000   256.0000 </r>
       <r>    -9.6319     0.0000   256.0000 </r>
       <r>    -9.5189     0.0000   256.0000 </r>
       <r>    -9.4060     0.0000   256.0000 </r>
       <r>    -9.2930     0.0000   256.0000 </r>
       <r>    -9.1800     0.0000   256.0000 </r>
       <r>    -9.0671     0.0000   256.0000 </r>
       <r>    -8.9541     0.0000   256.0000 </r>
       <r>    -8.8411     0.0000   256.0000 </r>
       <r>    -8.7282     0.0000   256.0000 </r>
       <r>    -8.6152     0.0000   256.0000 </r>
       <r>    -8.5022     0.0000   256.0000 </r>
       <r>    -8.3893     0.0000   256.0000 </r>
       <r>    -8.2763     0.0000   256.0000 </r>
       <r>    -8.1633     0.0000   256.0000 </r>
       <r>    -8.0504     0.0000   256.0000 </r>
       <r>    -7.9374     0.0000   256.0000 </r>
       <r>    -7.8244     0.0000   256.0000 </r>
       <r>    -7.7115     0.0000   256.0000 </r>
       <r>    -7.5985     0.0000   256.0000 </r>
       <r>    -7.4855     0.0000   256.0000 </r>
       <r>    -7.3726     0.0000   256.0000 </r>
       <r>    -7.2596     0.0000   256.0000 </r>
       <r>    -7.1467     0.0000   256.0000 </r>
       <r>    -7.0337     0.0000   256.0000 </r>
       <r>    -6.9207     0.0000   256.0000 </r>
       <r>    -6.8078     0.0000   256.0000 </r>
       <r>    -6.6948     0.0000   256.0000 </r>
       <r>    -6.5818     0.0000   256.0000 </r>
       <r>    -6.4689     0.0000   256.0000 </r>
       <r>    -6.3559     0.0000   256.0000 </r>
       <r>    -6.2429     0.0000   256.0000 </r>
       <r>    -6.1300     0.0000   256.0000 </r>
       <r>    -6.0170     0.0000   256.0000 </r>
       <r>    -5.9040     0.0000   256.0000 </r>
       <r>    -5.7911     0.0000   256.0000 </r>
       <r>    -5.6781     0.0000   256.0000 </r>
       <r>    -5.5651     0.0000   256.0000 </r>
       <r>    -5.4522     0.0000   256.0000 </r>
       <r>    -5.3392     0.0000   256.0000 </r>
       <r>    -5.2262     0.0000   256.0000 </r>
       <r>    -5.1133     0.0000   256.0000 </r>
       <r>    -5.0003     0.0000   256.0000 </r>
       <r>    -4.8874     0.0000   256.0000 </r>
       <r>    -4.7744     0.0000   256.0000 </r>
       <r>    -4.6614     0.0000   256.0000 </r>
       <r>    -4.5485     0.0000   256.0000 </r>
       <r>    -4.4355     0.0000   256.0000 </r>
       <r>    -4.3225     0.0000   256.0000 </r>
       <r>    -4.2096     0.0000   256.0000 </r>
       <r>    -4.0966     0.0000   256.0000 </r>
       <r>    -3.9836     0.0000   256.0000 </r>
       <r>    -3.8707     0.0000   256.0000 </r>
       <r>    -3.7577     0.0000   256.0000 </r>
       <r>    -3.6447     0.0000   256.0000 </r>
       <r>    -3.5318     0.0000   256.0000 </r>
       <r>    -3.4188     0.0000   256.0000 </r>
       <r>    -3.3058     0.0000   256.0000 </r>
       <r>    -3.1929     0.0000   256.0000 </r>
       <r>    -3.0799     0.0000   256.0000 </r>
       <r>    -2.9669     0.0000   256.0000 </r>
       <r>    -2.8540     0.0000   256.0000 </r>
       <r>    -2.7410     0.0166   256.0019 </r>
       <r>    -2.6281     8.8357   257.0000 </r>
       <r>    -2.5151    12.0551   258.3618 </r>
       <r>    -2.4021    88.5891   268.3693 </r>
       <r>    -2.2892    79.4281   277.3419 </r>
       <r>    -2.1762   160.2390   295.4433 </r>
       <r>    -2.0632    77.9597   304.2500 </r>
       <r>    -1.9503    53.7421   310.3210 </r>
       <r>    -1.8373    52.0322   316.1988 </r>
       <r>    -1.7243    84.5501   325.7500 </r>
       <r>    -1.6114     0.0000   325.7500 </r>
       <r>    -1.4984    40.4069   330.3146 </r>
       <r>    -1.3854   215.7064   354.6818 </r>
       <r>    -1.2725    35.2785   358.6671 </r>
       <r>    -1.1595   230.3870   384.6927 </r>
       <r>    -1.0465   156.6061   402.3840 </r>
       <r>    -0.9336   235.6812   429.0081 </r>
       <r>    -0.8206    81.2313   438.1845 </r>
       <r>    -0.7076    79.8742   447.2075 </r>
       <r>    -0.5947     7.0156   448.0000 </r>
       <r>    -0.4817     0.0000   448.0000 </r>
       <r>    -0.3688     0.0000   448.0000 </r>
       <r>    -0.2558     0.0000   448.0000 </r>
       <r>    -0.1428     0.0000   448.0000 </r>
       <r>    -0.0299     0.0000   448.0000 </r>
       <r>     0.0831     0.0000   448.0000 </r>
       <r>     0.1961     0.0000   448.0000 </r>
       <r>     0.3090     0.0000   448.0000 </r>
       <r>     0.4220     0.0000   448.0000 </r>
       <r>     0.5350     0.0000   448.0000 </r>
       <r>     0.6479     0.0000   448.0000 </r>
       <r>     0.7609     0.0000   448.0000 </r>
       <r>     0.8739     0.0000   448.0000 </r>
       <r>     0.9868     0.0000   448.0000 </r>
       <r>     1.0998     0.0000   448.0000 </r>
       <r>     1.2128     0.0000   448.0000 </r>
       <r>     1.3257     0.0000   448.0000 </r>
       <r>     1.4387     0.0000   448.0000 </r>
       <r>     1.5517     0.0000   448.0000 </r>
       <r>     1.6646     0.0000   448.0000 </r>
       <r>     1.7776     0.0000   448.0000 </r>
       <r>     1.8905     0.0000   448.0000 </r>
       <r>     2.0035     0.0000   448.0000 </r>
       <r>     2.1165     0.0000   448.0000 </r>
       <r>     2.2294     0.0000   448.0000 </r>
       <r>     2.3424     0.0000   448.0000 </r>
       <r>     2.4554     0.0000   448.0000 </r>
       <r>     2.5683     0.0000   448.0000 </r>
       <r>     2.6813     0.0000   448.0000 </r>
       <r>     2.7943     0.0000   448.0000 </r>
       <r>     2.9072     0.0000   448.0000 </r>
       <r>     3.0202     0.0000   448.0000 </r>
       <r>     3.1332     0.0000   448.0000 </r>
       <r>     3.2461     0.0000   448.0000 </r>
       <r>     3.3591     0.0000   448.0000 </r>
       <r>     3.4721     0.0000   448.0000 </r>
       <r>     3.5850     0.0000   448.0000 </r>
       <r>     3.6980     0.0000   448.0000 </r>
       <r>     3.8110     0.0000   448.0000 </r>
       <r>     3.9239     0.0000   448.0000 </r>
       <r>     4.0369     0.0000   448.0000 </r>
       <r>     4.1499     0.0000   448.0000 </r>
       <r>     4.2628     0.0000   448.0000 </r>
       <r>     4.3758     2.1998   448.2485 </r>
       <r>     4.4887     0.0133   448.2500 </r>
       <r>     4.6017     0.0000   448.2500 </r>
       <r>     4.7147     0.0000   448.2500 </r>
       <r>     4.8276     0.0000   448.2500 </r>
       <r>     4.9406     0.0000   448.2500 </r>
       <r>     5.0536    13.0851   449.7282 </r>
       <r>     5.1665     0.1933   449.7500 </r>
       <r>     5.2795     0.0000   449.7500 </r>
       <r>     5.3925     0.0000   449.7500 </r>
       <r>     5.5054     0.2689   449.7804 </r>
       <r>     5.6184    26.2880   452.7500 </r>
       <r>     5.7314     0.0000   452.7500 </r>
       <r>     5.8443    14.2183   454.3562 </r>
       <r>     5.9573     3.4863   454.7500 </r>
       <r>     6.0703     0.0000   454.7500 </r>
       <r>     6.1832     0.0000   454.7500 </r>
       <r>     6.2962     0.0000   454.7500 </r>
       <r>     6.4092    13.2917   456.2515 </r>
       <r>     6.5221     8.8386   457.2500 </r>
       <r>     6.6351    20.9231   459.6136 </r>
       <r>     6.7480    84.0676   469.1103 </r>
       <r>     6.8610    54.9870   475.3219 </r>
       <r>     6.9740    13.6712   476.8662 </r>
       <r>     7.0869     5.6102   477.5000 </r>
       <r>     7.1999     2.0819   477.7352 </r>
       <r>     7.3129     4.5651   478.2509 </r>
       <r>     7.4258    77.7107   487.0295 </r>
       <r>     7.5388   157.9155   504.8684 </r>
       <r>     7.6518    16.6524   506.7500 </r>
       <r>     7.7647    26.5502   509.7493 </r>
       <r>     7.8777     0.0059   509.7504 </r>
       <r>     7.9907    53.1053   515.7495 </r>
       <r>     8.1036     0.0019   515.7500 </r>
       <r>     8.2166    13.2962   517.2520 </r>
       <r>     8.3296    92.5370   527.7058 </r>
       <r>     8.4425     0.3879   527.7500 </r>
       <r>     8.5555   116.3360   540.8919 </r>
       <r>     8.6685    43.0053   545.7500 </r>
       <r>     8.7814     0.0000   545.7500 </r>
       <r>     8.8944    57.4511   552.2400 </r>
       <r>     9.0073   131.5938   567.1055 </r>
       <r>     9.1203    21.1947   569.5000 </r>
       <r>     9.2333     8.1554   570.4213 </r>
       <r>     9.3462    36.1061   574.5000 </r>
       <r>     9.4592     0.1685   574.5190 </r>
       <r>     9.5722    13.1099   576.0000 </r>
       <r>     9.6851     0.0000   576.0000 </r>
       <r>     9.7981     0.0000   576.0000 </r>
       <r>     9.9111     0.0000   576.0000 </r>
       <r>    10.0240     0.0000   576.0000 </r>
       <r>    10.1370     0.0000   576.0000 </r>
       <r>    10.2500     0.0000   576.0000 </r>
       <r>    10.3629     0.0000   576.0000 </r>
       <r>    10.4759     0.0000   576.0000 </r>
       <r>    10.5889     0.0000   576.0000 </r>
       <r>    10.7018     0.0000   576.0000 </r>
       <r>    10.8148     0.0000   576.0000 </r>
       <r>    10.9278     0.0000   576.0000 </r>
       <r>    11.0407     0.0000   576.0000 </r>
      </set>
     </set>
    </array>
   </total>
  </dos>
 </calculation>
 <structure name="finalpos" >
  <crystal>
   <varray name="basis" >
    <v>      11.20400236       0.00000000       0.00000000 </v>
    <v>       0.00000000      11.20400236       0.00000000 </v>
    <v>       0.00000000       0.00000000      11.20400236 </v>
   </varray>
   <i name="volume">   1406.43470641 </i>
   <varray name="rec_basis" >
    <v>       0.08925382       0.00000000       0.00000000 </v>
    <v>       0.00000000       0.08925382       0.00000000 </v>
    <v>       0.00000000       0.00000000       0.08925382 </v>
   </varray>
  </crystal>
  <varray name="positions" >
   <v>       0.99732239       0.00000000       0.00000000 </v>
   <v>       0.25000000       0.25000000       0.00000000 </v>
   <v>       0.25000000       0.00000000       0.25000000 </v>
   <v>       0.00000000       0.25000000       0.25000000 </v>
   <v>       0.00000000       0.00000000       0.50000000 </v>
   <v>       0.25000000       0.25000000       0.50000000 </v>
   <v>       0.25000000       0.00000000       0.75000000 </v>
   <v>       0.00000000       0.25000000       0.75000000 </v>
   <v>       0.00000000       0.50000000       0.00000000 </v>
   <v>       0.25000000       0.75000000       0.00000000 </v>
   <v>       0.25000000       0.50000000       0.25000000 </v>
   <v>       0.00000000       0.75000000       0.25000000 </v>
   <v>       0.00000000       0.50000000       0.50000000 </v>
   <v>       0.25000000       0.75000000       0.50000000 </v>
   <v>       0.25000000       0.50000000       0.75000000 </v>
   <v>       0.00000000       0.75000000       0.75000000 </v>
   <v>       0.50000000       0.00000000       0.00000000 </v>
   <v>       0.75000000       0.25000000       0.00000000 </v>
   <v>       0.75000000       0.00000000       0.25000000 </v>
   <v>       0.50000000       0.25000000       0.25000000 </v>
   <v>       0.50000000       0.00000000       0.50000000 </v>
   <v>       0.75000000       0.25000000       0.50000000 </v>
   <v>       0.75000000       0.00000000       0.75000000 </v>
   <v>       0.50000000       0.25000000       0.75000000 </v>
   <v>       0.50000000       0.50000000       0.00000000 </v>
   <v>       0.75000000       0.75000000       0.00000000 </v>
   <v>       0.75000000       0.50000000       0.25000000 </v>
   <v>       0.50000000       0.75000000       0.25000000 </v>
   <v>       0.50000000       0.50000000       0.50000000 </v>
   <v>       0.75000000       0.75000000       0.50000000 </v>
   <v>       0.75000000       0.50000000       0.75000000 </v>
   <v>       0.50000000       0.75000000       0.75000000 </v>
   <v>       0.25000000       0.24732239       0.25000000 </v>
   <v>       0.00000000       0.00000000       0.25000000 </v>
   <v>       0.00000000       0.25000000       0.00000000 </v>
   <v>       0.25000000       0.00000000       0.00000000 </v>
   <v>       0.25000000       0.25000000       0.75000000 </v>
   <v>       0.00000000       0.00000000       0.75000000 </v>
   <v>       0.00000000       0.25000000       0.50000000 </v>
   <v>       0.25000000       0.00000000       0.50000000 </v>
   <v>       0.25000000       0.75000000       0.25000000 </v>
   <v>       0.00000000       0.50000000       0.25000000 </v>
   <v>       0.00000000       0.75000000       0.00000000 </v>
   <v>       0.25000000       0.50000000       0.00000000 </v>
   <v>       0.25000000       0.75000000       0.75000000 </v>
   <v>       0.00000000       0.50000000       0.75000000 </v>
   <v>       0.00000000       0.75000000       0.50000000 </v>
   <v>       0.25000000       0.50000000       0.50000000 </v>
   <v>       0.75000000       0.25000000       0.25000000 </v>
   <v>       0.50000000       0.00000000       0.25000000 </v>
   <v>       0.50000000       0.25000000       0.00000000 </v>
   <v>       0.75000000       0.00000000       0.00000000 </v>
   <v>       0.75000000       0.25000000       0.75000000 </v>
   <v>       0.50000000       0.00000000       0.75000000 </v>
   <v>       0.50000000       0.25000000       0.50000000 </v>
   <v>       0.75000000       0.00000000       0.50000000 </v>
   <v>       0.75000000       0.75000000       0.25000000 </v>
   <v>       0.50000000       0.50000000       0.25000000 </v>
   <v>       0.50000000       0.75000000       0.00000000 </v>
   <v>       0.75000000       0.50000000       0.00000000 </v>
   <v>       0.75000000       0.75000000       0.75000000 </v>
   <v>       0.50000000       0.50000000       0.75000000 </v>
   <v>       0.50000000       0.75000000       0.50000000 </v>
   <v>       0.75000000       0.50000000       0.50000000 </v>
  </varray>
 </structure>
</modeling>
